LAMMPS (17 Feb 2022)
KOKKOS mode is enabled (../kokkos.cpp:105)
  will use up to 1 GPU(s) per node
Lattice spacing in x,y,z = 5.431 5.431 5.431
Created orthogonal box = (0 0 0) to (108.62 108.62 54.31)
  1 by 1 by 1 MPI processor grid
Created 32000 atoms
  using lattice units in orthogonal box = (0 0 0) to (108.62 108.62 54.31)
  create_atoms CPU = 0.030 seconds
Replicating atoms ...
  orthogonal box = (0 0 0) to (651.72 651.72 325.86)
  1 by 1 by 1 MPI processor grid
  6912000 atoms
  replicate CPU = 2.221 seconds
Reading tersoff potential file Si.tersoff with DATE: 2007-10-25
Neighbor list info ...
  update every 1 steps, delay 5 steps, check yes
  max neighbors/atom: 2000, page size: 100000
  master list distance cutoff = 4.2
  ghost atom cutoff = 4.2
  binsize = 4.2, bins = 156 156 78
  1 neighbor lists, perpetual/occasional/extra = 1 0 0
  (1) pair tersoff/kk, perpetual
      attributes: full, newton on, kokkos_device
      pair build: full/bin/kk/device
      stencil: full/bin/3d
      bin: kk/device
Setting up Verlet run ...
  Unit style    : metal
  Current step  : 0
  Time step     : 0.001
Per MPI rank memory allocation (min/avg/max) = 1187 | 1187 | 1187 Mbytes
Step Temp E_pair E_mol TotEng Press 
       0         1000    -32005408            0    -31111962    7019.6579 
     100    428.19399    -31493999            0    -31111431   -14406.256 
Loop time of 4.27695 on 1 procs for 100 steps with 6912000 atoms

Performance: 2.020 ns/day, 11.880 hours/ns, 23.381 timesteps/s
219.6% CPU use with 1 MPI tasks x 1 OpenMP threads

MPI task timing breakdown:
Section |  min time  |  avg time  |  max time  |%varavg| %total
---------------------------------------------------------------
Pair    | 0.42367    | 0.42367    | 0.42367    |   0.0 |  9.91
Neigh   | 0.29775    | 0.29775    | 0.29775    |   0.0 |  6.96
Comm    | 3.164      | 3.164      | 3.164      |   0.0 | 73.98
Output  | 0.00038183 | 0.00038183 | 0.00038183 |   0.0 |  0.01
Modify  | 0.11825    | 0.11825    | 0.11825    |   0.0 |  2.76
Other   |            | 0.2729     |            |       |  6.38

Nlocal:      6.912e+06 ave   6.912e+06 max   6.912e+06 min
Histogram: 1 0 0 0 0 0 0 0 0 0
Nghost:         380069 ave      380069 max      380069 min
Histogram: 1 0 0 0 0 0 0 0 0 0
Neighs:              0 ave           0 max           0 min
Histogram: 1 0 0 0 0 0 0 0 0 0
FullNghs:  1.14835e+08 ave 1.14835e+08 max 1.14835e+08 min
Histogram: 1 0 0 0 0 0 0 0 0 0

Total # of neighbors = 1.1483461e+08
Ave neighs/atom = 16.613803
Neighbor list builds = 3
Dangerous builds = 0
Total wall time: 0:00:11
