LAMMPS (17 Feb 2022)
KOKKOS mode is enabled (../kokkos.cpp:105)
  will use up to 1 GPU(s) per node
Lattice spacing in x,y,z = 5.431 5.431 5.431
Created orthogonal box = (0 0 0) to (108.62 108.62 54.31)
  1 by 1 by 1 MPI processor grid
Created 32000 atoms
  using lattice units in orthogonal box = (0 0 0) to (108.62 108.62 54.31)
  create_atoms CPU = 0.020 seconds
Replicating atoms ...
  orthogonal box = (0 0 0) to (434.48 434.48 217.24)
  1 by 1 by 1 MPI processor grid
  2048000 atoms
  replicate CPU = 0.923 seconds
Reading tersoff potential file Si.tersoff with DATE: 2007-10-25
Neighbor list info ...
  update every 1 steps, delay 5 steps, check yes
  max neighbors/atom: 2000, page size: 100000
  master list distance cutoff = 4.2
  ghost atom cutoff = 4.2
  binsize = 4.2, bins = 104 104 52
  1 neighbor lists, perpetual/occasional/extra = 1 0 0
  (1) pair tersoff/kk, perpetual
      attributes: full, newton on, kokkos_device
      pair build: full/bin/kk/device
      stencil: full/bin/3d
      bin: kk/device
Setting up Verlet run ...
  Unit style    : metal
  Current step  : 0
  Time step     : 0.001
Per MPI rank memory allocation (min/avg/max) = 364 | 364 | 364 Mbytes
Step Temp E_pair E_mol TotEng Press 
       0         1000   -9483083.9            0   -9218359.3    7019.6555 
     100    428.31807   -9331588.5            0   -9218202.2   -14387.815 
Loop time of 1.02232 on 1 procs for 100 steps with 2048000 atoms

Performance: 8.451 ns/day, 2.840 hours/ns, 97.817 timesteps/s
80.5% CPU use with 1 MPI tasks x 1 OpenMP threads

MPI task timing breakdown:
Section |  min time  |  avg time  |  max time  |%varavg| %total
---------------------------------------------------------------
Pair    | 0.15408    | 0.15408    | 0.15408    |   0.0 | 15.07
Neigh   | 0.039173   | 0.039173   | 0.039173   |   0.0 |  3.83
Comm    | 0.74123    | 0.74123    | 0.74123    |   0.0 | 72.50
Output  | 0.00026341 | 0.00026341 | 0.00026341 |   0.0 |  0.03
Modify  | 0.027033   | 0.027033   | 0.027033   |   0.0 |  2.64
Other   |            | 0.06054    |            |       |  5.92

Nlocal:      2.048e+06 ave   2.048e+06 max   2.048e+06 min
Histogram: 1 0 0 0 0 0 0 0 0 0
Nghost:         171613 ave      171613 max      171613 min
Histogram: 1 0 0 0 0 0 0 0 0 0
Neighs:              0 ave           0 max           0 min
Histogram: 1 0 0 0 0 0 0 0 0 0
FullNghs:  3.38785e+07 ave 3.38785e+07 max 3.38785e+07 min
Histogram: 1 0 0 0 0 0 0 0 0 0

Total # of neighbors = 33878458
Ave neighs/atom = 16.542216
Neighbor list builds = 2
Dangerous builds = 0
Total wall time: 0:00:03
