LAMMPS (17 Feb 2022)
KOKKOS mode is enabled (../kokkos.cpp:105)
  will use up to 1 GPU(s) per node
Lattice spacing in x,y,z = 5.431 5.431 5.431
Created orthogonal box = (0 0 0) to (108.62 108.62 54.31)
  1 by 1 by 1 MPI processor grid
Created 32000 atoms
  using lattice units in orthogonal box = (0 0 0) to (108.62 108.62 54.31)
  create_atoms CPU = 0.018 seconds
Replicating atoms ...
  orthogonal box = (0 0 0) to (217.24 217.24 108.62)
  1 by 1 by 1 MPI processor grid
  256000 atoms
  replicate CPU = 0.049 seconds
Reading tersoff potential file Si.tersoff with DATE: 2007-10-25
Neighbor list info ...
  update every 1 steps, delay 5 steps, check yes
  max neighbors/atom: 2000, page size: 100000
  master list distance cutoff = 4.2
  ghost atom cutoff = 4.2
  binsize = 4.2, bins = 52 52 26
  1 neighbor lists, perpetual/occasional/extra = 1 0 0
  (1) pair tersoff/kk, perpetual
      attributes: full, newton on, kokkos_device
      pair build: full/bin/kk/device
      stencil: full/bin/3d
      bin: kk/device
Setting up Verlet run ...
  Unit style    : metal
  Current step  : 0
  Time step     : 0.001
Per MPI rank memory allocation (min/avg/max) = 50.69 | 50.69 | 50.69 Mbytes
Step Temp E_pair E_mol TotEng Press 
       0         1000   -1185385.5            0     -1152295     7019.632 
     100    428.62071   -1166458.6            0   -1152275.3   -14362.981 
Loop time of 0.128168 on 1 procs for 100 steps with 256000 atoms

Performance: 67.411 ns/day, 0.356 hours/ns, 780.224 timesteps/s
203.1% CPU use with 1 MPI tasks x 1 OpenMP threads

MPI task timing breakdown:
Section |  min time  |  avg time  |  max time  |%varavg| %total
---------------------------------------------------------------
Pair    | 0.023187   | 0.023187   | 0.023187   |   0.0 | 18.09
Neigh   | 0.0054868  | 0.0054868  | 0.0054868  |   0.0 |  4.28
Comm    | 0.071873   | 0.071873   | 0.071873   |   0.0 | 56.08
Output  | 8.1869e-05 | 8.1869e-05 | 8.1869e-05 |   0.0 |  0.06
Modify  | 0.013019   | 0.013019   | 0.013019   |   0.0 | 10.16
Other   |            | 0.01452    |            |       | 11.33

Nlocal:         256000 ave      256000 max      256000 min
Histogram: 1 0 0 0 0 0 0 0 0 0
Nghost:          43981 ave       43981 max       43981 min
Histogram: 1 0 0 0 0 0 0 0 0 0
Neighs:              0 ave           0 max           0 min
Histogram: 1 0 0 0 0 0 0 0 0 0
FullNghs:  4.23685e+06 ave 4.23685e+06 max 4.23685e+06 min
Histogram: 1 0 0 0 0 0 0 0 0 0

Total # of neighbors = 4236854
Ave neighs/atom = 16.550211
Neighbor list builds = 2
Dangerous builds = 0
Total wall time: 0:00:00
