LAMMPS (17 Feb 2022)
KOKKOS mode is enabled (../kokkos.cpp:105)
  will use up to 1 GPU(s) per node
Lattice spacing in x,y,z = 5.431 5.431 5.431
Created orthogonal box = (0 0 0) to (108.62 108.62 54.31)
  1 by 1 by 1 MPI processor grid
Created 32000 atoms
  using lattice units in orthogonal box = (0 0 0) to (108.62 108.62 54.31)
  create_atoms CPU = 0.014 seconds
Replicating atoms ...
  orthogonal box = (0 0 0) to (868.96 868.96 434.48)
  1 by 1 by 1 MPI processor grid
  16384000 atoms
  replicate CPU = 4.179 seconds
Reading tersoff potential file Si.tersoff with DATE: 2007-10-25
Neighbor list info ...
  update every 1 steps, delay 5 steps, check yes
  max neighbors/atom: 2000, page size: 100000
  master list distance cutoff = 4.2
  ghost atom cutoff = 4.2
  binsize = 4.2, bins = 207 207 104
  1 neighbor lists, perpetual/occasional/extra = 1 0 0
  (1) pair tersoff/kk, perpetual
      attributes: full, newton on, kokkos_device
      pair build: full/bin/kk/device
      stencil: full/bin/3d
      bin: kk/device
Setting up Verlet run ...
  Unit style    : metal
  Current step  : 0
  Time step     : 0.001
Per MPI rank memory allocation (min/avg/max) = 2776 | 2776 | 2776 Mbytes
Step Temp E_pair E_mol TotEng Press 
       0         1000    -75864671            0    -73746873    7019.6585 
     100    428.10314    -74652250            0    -73745614   -14399.741 
Loop time of 3.50396 on 1 procs for 100 steps with 16384000 atoms

Performance: 2.466 ns/day, 9.733 hours/ns, 28.539 timesteps/s
62.7% CPU use with 1 MPI tasks x 1 OpenMP threads

MPI task timing breakdown:
Section |  min time  |  avg time  |  max time  |%varavg| %total
---------------------------------------------------------------
Pair    | 0.37864    | 0.37864    | 0.37864    |   0.0 | 10.81
Neigh   | 0.26144    | 0.26144    | 0.26144    |   0.0 |  7.46
Comm    | 2.4578     | 2.4578     | 2.4578     |   0.0 | 70.14
Output  | 0.001012   | 0.001012   | 0.001012   |   0.0 |  0.03
Modify  | 0.10622    | 0.10622    | 0.10622    |   0.0 |  3.03
Other   |            | 0.2989     |            |       |  8.53

Nlocal:     1.6384e+07 ave  1.6384e+07 max  1.6384e+07 min
Histogram: 1 0 0 0 0 0 0 0 0 0
Nghost:         673055 ave      673055 max      673055 min
Histogram: 1 0 0 0 0 0 0 0 0 0
Neighs:              0 ave           0 max           0 min
Histogram: 1 0 0 0 0 0 0 0 0 0
FullNghs:  2.72347e+08 ave 2.72347e+08 max 2.72347e+08 min
Histogram: 1 0 0 0 0 0 0 0 0 0

Total # of neighbors = 2.7234746e+08
Ave neighs/atom = 16.62277
Neighbor list builds = 3
Dangerous builds = 0
Total wall time: 0:00:16
