LAMMPS (17 Feb 2022)
KOKKOS mode is enabled (../kokkos.cpp:105)
  will use up to 1 GPU(s) per node
Reading data file ...
  orthogonal box = (0.11598334 0.11598334 0.11598334) to (76.884017 76.884017 76.884017)
  1 by 1 by 1 MPI processor grid
WARNING: Pair style in data file differs from currently defined pair style (../read_data.cpp:613)
  reading atoms ...
  45000 atoms
  reading velocities ...
  45000 velocities
  scanning bonds ...
  2 = max bonds/atom
  scanning angles ...
  1 = max angles/atom
  reading bonds ...
  30000 bonds
  reading angles ...
  15000 angles
Finding 1-2 1-3 1-4 neighbors ...
  special bond factors lj:    0        0        0       
  special bond factors coul:  0        0        0       
     2 = max # of 1-2 neighbors
     1 = max # of 1-3 neighbors
     1 = max # of 1-4 neighbors
     2 = max # of special neighbors
  special bonds CPU = 0.010 seconds
  read_data CPU = 0.448 seconds
Replicating atoms ...
  orthogonal box = (0.11598334 0.11598334 0.11598334) to (76.884017 76.884017 76.884017)
  1 by 1 by 1 MPI processor grid
  45000 atoms
  30000 bonds
  15000 angles
Finding 1-2 1-3 1-4 neighbors ...
  special bond factors lj:    0        0        0       
  special bond factors coul:  0        0        0       
     2 = max # of 1-2 neighbors
     1 = max # of 1-3 neighbors
     1 = max # of 1-4 neighbors
     2 = max # of special neighbors
  special bonds CPU = 0.010 seconds
  replicate CPU = 0.083 seconds
PPPM initialization ...
  using 12-bit tables for long-range coulomb (../kspace.cpp:340)
  G vector (1/distance) = 0.23076479
  grid = 48 48 48
  stencil order = 5
  estimated absolute RMS force accuracy = 0.0035267981
  estimated relative force accuracy = 1.0620848e-05
  using double precision hipFFT
  3d grid and FFT values/proc = 166375 110592
  generated 0 of 1 mixed pair_coeff terms from geometric mixing rule
Neighbor list info ...
  update every 1 steps, delay 10 steps, check yes
  max neighbors/atom: 2000, page size: 100000
  master list distance cutoff = 15
  ghost atom cutoff = 15
  binsize = 15, bins = 6 6 6
  1 neighbor lists, perpetual/occasional/extra = 1 0 0
  (1) pair lj/class2/coul/long/kk, perpetual
      attributes: full, newton off, kokkos_device
      pair build: full/bin/kk/device
      stencil: full/bin/3d
      bin: kk/device
Setting up Verlet run ...
  Unit style    : real
  Current step  : 0
  Time step     : 0.01
Per MPI rank memory allocation (min/avg/max) = 66.91 | 66.91 | 66.91 Mbytes
---------------- Step        0 ----- CPU =      0.0000 (sec) ----------------
TotEng   =   -146294.7980 KinEng   =     41601.4962 Temp     =       310.1500 
PotEng   =   -187896.2942 E_bond   =         0.0004 E_angle  =         0.0000 
E_dihed  =         0.0000 E_impro  =         0.0000 E_vdwl   =     -5477.5426 
E_coul   =    493849.7625 E_long   =   -676268.5145 Press    =     -2987.0991 
---------------- Step      100 ----- CPU =      1.1303 (sec) ----------------
TotEng   =   -146294.7653 KinEng   =     40357.8515 Temp     =       300.8783 
PotEng   =   -186652.6168 E_bond   =      3462.3950 E_angle  =       493.9656 
E_dihed  =         0.0000 E_impro  =         0.0000 E_vdwl   =     -5473.2716 
E_coul   =    491126.9741 E_long   =   -676262.6798 Press    =     -8529.4133 
Loop time of 1.13037 on 1 procs for 100 steps with 45000 atoms

Performance: 0.076 ns/day, 313.990 hours/ns, 88.467 timesteps/s
206.2% CPU use with 1 MPI tasks x 1 OpenMP threads

MPI task timing breakdown:
Section |  min time  |  avg time  |  max time  |%varavg| %total
---------------------------------------------------------------
Pair    | 0.063791   | 0.063791   | 0.063791   |   0.0 |  5.64
Bond    | 0.63387    | 0.63387    | 0.63387    |   0.0 | 56.08
Kspace  | 0.29882    | 0.29882    | 0.29882    |   0.0 | 26.44
Neigh   | 0          | 0          | 0          |   0.0 |  0.00
Comm    | 0.068047   | 0.068047   | 0.068047   |   0.0 |  6.02
Output  | 9.6597e-05 | 9.6597e-05 | 9.6597e-05 |   0.0 |  0.01
Modify  | 0.057569   | 0.057569   | 0.057569   |   0.0 |  5.09
Other   |            | 0.00817    |            |       |  0.72

Nlocal:          45000 ave       45000 max       45000 min
Histogram: 1 0 0 0 0 0 0 0 0 0
Nghost:          75938 ave       75938 max       75938 min
Histogram: 1 0 0 0 0 0 0 0 0 0
Neighs:              0 ave           0 max           0 min
Histogram: 1 0 0 0 0 0 0 0 0 0
FullNghs:  6.32407e+07 ave 6.32407e+07 max 6.32407e+07 min
Histogram: 1 0 0 0 0 0 0 0 0 0

Total # of neighbors = 63240730
Ave neighs/atom = 1405.3496
Ave special neighs/atom = 2
Neighbor list builds = 0
Dangerous builds = 0
Total wall time: 0:00:03
