LAMMPS (17 Feb 2022)
KOKKOS mode is enabled (../kokkos.cpp:105)
  will use up to 1 GPU(s) per node
Lattice spacing in x,y,z = 3.615 3.615 3.615
Created orthogonal box = (0 0 0) to (867.6 867.6 867.6)
  1 by 1 by 1 MPI processor grid
Created 55296000 atoms
  using lattice units in orthogonal box = (0 0 0) to (867.6 867.6 867.6)
  create_atoms CPU = 29.524 seconds
Reading eam potential file Cu_u3.eam with DATE: 2007-06-11
Neighbor list info ...
  update every 1 steps, delay 5 steps, check yes
  max neighbors/atom: 2000, page size: 100000
  master list distance cutoff = 5.95
  ghost atom cutoff = 5.95
  binsize = 5.95, bins = 146 146 146
  1 neighbor lists, perpetual/occasional/extra = 1 0 0
  (1) pair eam/kk, perpetual
      attributes: half, newton off, kokkos_device
      pair build: half/bin/kk/device
      stencil: full/bin/3d
      bin: kk/device
Setting up Verlet run ...
  Unit style    : metal
  Current step  : 0
  Time step     : 0.005
terminate called after throwing an instance of 'std::runtime_error'
  what():  Kokkos failed to allocate memory for label "neighbors".  Allocation using MemorySpace named "Cuda" failed with the following error:  Allocation of size 19.16 G failed, likely due to insufficient memory.  (The allocation mechanism was cudaMalloc().  The Cuda allocation returned the error code ""cudaErrorMemoryAllocation".)

Traceback functionality not available

[b29n16:2216734] *** Process received signal ***
[b29n16:2216734] Signal: Aborted (6)
[b29n16:2216734] Signal code:  (-6)
[b29n16:2216734] [ 0] linux-vdso64.so.1(__kernel_sigtramp_rt64+0x0)[0x2000000504d8]
[b29n16:2216734] [ 1] /lib64/power9/libc.so.6(gsignal+0xd8)[0x20000b983618]
[b29n16:2216734] [ 2] /lib64/power9/libc.so.6(abort+0x164)[0x20000b963a2c]
[b29n16:2216734] [ 3] /lib64/libstdc++.so.6(_ZN9__gnu_cxx27__verbose_terminate_handlerEv+0x158)[0x20000b654a98]
[b29n16:2216734] [ 4] /lib64/libstdc++.so.6(+0xaf6d4)[0x20000b64f6d4]
[b29n16:2216734] [ 5] /lib64/libstdc++.so.6(_ZSt9terminatev+0x20)[0x20000b64f790]
[b29n16:2216734] [ 6] /lib64/libstdc++.so.6(__cxa_throw+0x7c)[0x20000b64fc6c]
[b29n16:2216734] [ 7] /gpfs/alpine/proj-shared/stf016/hagertnl/CUG22/lammps_tests/eam/dir_pair-only_off_gpu-aware_off_comm_device_newton_off_neigh-thread_off_neigh_half/../../lammps/bin/lmp_summit[0x11a78cfc]
[b29n16:2216734] [ 8] /gpfs/alpine/proj-shared/stf016/hagertnl/CUG22/lammps_tests/eam/dir_pair-only_off_gpu-aware_off_comm_device_newton_off_neigh-thread_off_neigh_half/../../lammps/bin/lmp_summit[0x11a8bbe4]
[b29n16:2216734] [ 9] /gpfs/alpine/proj-shared/stf016/hagertnl/CUG22/lammps_tests/eam/dir_pair-only_off_gpu-aware_off_comm_device_newton_off_neigh-thread_off_neigh_half/../../lammps/bin/lmp_summit[0x11a86e20]
[b29n16:2216734] [10] /gpfs/alpine/proj-shared/stf016/hagertnl/CUG22/lammps_tests/eam/dir_pair-only_off_gpu-aware_off_comm_device_newton_off_neigh-thread_off_neigh_half/../../lammps/bin/lmp_summit[0x105e5270]
[b29n16:2216734] [11] /gpfs/alpine/proj-shared/stf016/hagertnl/CUG22/lammps_tests/eam/dir_pair-only_off_gpu-aware_off_comm_device_newton_off_neigh-thread_off_neigh_half/../../lammps/bin/lmp_summit[0x1060072c]
[b29n16:2216734] [12] /gpfs/alpine/proj-shared/stf016/hagertnl/CUG22/lammps_tests/eam/dir_pair-only_off_gpu-aware_off_comm_device_newton_off_neigh-thread_off_neigh_half/../../lammps/bin/lmp_summit[0x117e3cc4]
[b29n16:2216734] [13] /gpfs/alpine/proj-shared/stf016/hagertnl/CUG22/lammps_tests/eam/dir_pair-only_off_gpu-aware_off_comm_device_newton_off_neigh-thread_off_neigh_half/../../lammps/bin/lmp_summit[0x117d4a94]
[b29n16:2216734] [14] /gpfs/alpine/proj-shared/stf016/hagertnl/CUG22/lammps_tests/eam/dir_pair-only_off_gpu-aware_off_comm_device_newton_off_neigh-thread_off_neigh_half/../../lammps/bin/lmp_summit[0x119893a0]
[b29n16:2216734] [15] /gpfs/alpine/proj-shared/stf016/hagertnl/CUG22/lammps_tests/eam/dir_pair-only_off_gpu-aware_off_comm_device_newton_off_neigh-thread_off_neigh_half/../../lammps/bin/lmp_summit[0x106fe51c]
[b29n16:2216734] [16] /gpfs/alpine/proj-shared/stf016/hagertnl/CUG22/lammps_tests/eam/dir_pair-only_off_gpu-aware_off_comm_device_newton_off_neigh-thread_off_neigh_half/../../lammps/bin/lmp_summit[0x10083aa0]
[b29n16:2216734] [17] /gpfs/alpine/proj-shared/stf016/hagertnl/CUG22/lammps_tests/eam/dir_pair-only_off_gpu-aware_off_comm_device_newton_off_neigh-thread_off_neigh_half/../../lammps/bin/lmp_summit[0x10084150]
[b29n16:2216734] [18] /gpfs/alpine/proj-shared/stf016/hagertnl/CUG22/lammps_tests/eam/dir_pair-only_off_gpu-aware_off_comm_device_newton_off_neigh-thread_off_neigh_half/../../lammps/bin/lmp_summit[0x100179fc]
[b29n16:2216734] [19] /lib64/power9/libc.so.6(+0x24078)[0x20000b964078]
[b29n16:2216734] [20] /lib64/power9/libc.so.6(__libc_start_main+0xb4)[0x20000b964264]
[b29n16:2216734] *** End of error message ***
ERROR:  One or more process (first noticed rank 0) terminated with signal 6 (core dumped)
