LAMMPS (17 Feb 2022)
KOKKOS mode is enabled (../kokkos.cpp:105)
  will use up to 1 GPU(s) per node
Lattice spacing in x,y,z = 3.615 3.615 3.615
Created orthogonal box = (0 0 0) to (72.3 72.3 72.3)
  1 by 1 by 1 MPI processor grid
Created 32000 atoms
  using lattice units in orthogonal box = (0 0 0) to (72.3 72.3 72.3)
  create_atoms CPU = 0.012 seconds
Reading eam potential file Cu_u3.eam with DATE: 2007-06-11
Neighbor list info ...
  update every 1 steps, delay 5 steps, check yes
  max neighbors/atom: 2000, page size: 100000
  master list distance cutoff = 5.95
  ghost atom cutoff = 5.95
  binsize = 5.95, bins = 13 13 13
  1 neighbor lists, perpetual/occasional/extra = 1 0 0
  (1) pair eam/kk, perpetual
      attributes: half, newton off, kokkos_device
      pair build: half/bin/kk/device
      stencil: full/bin/3d
      bin: kk/device
Setting up Verlet run ...
  Unit style    : metal
  Current step  : 0
  Time step     : 0.005
Per MPI rank memory allocation (min/avg/max) = 9.821 | 9.821 | 9.821 Mbytes
Step Temp E_pair E_mol TotEng Press 
       0         1600      -113280            0   -106662.09    18703.573 
      50    781.69049   -109873.35            0   -106640.13    52273.088 
     100      801.832    -109957.3            0   -106640.77    51322.821 
Loop time of 0.0711085 on 1 procs for 100 steps with 32000 atoms

Performance: 607.523 ns/day, 0.040 hours/ns, 1406.303 timesteps/s
69.2% CPU use with 1 MPI tasks x 1 OpenMP threads

MPI task timing breakdown:
Section |  min time  |  avg time  |  max time  |%varavg| %total
---------------------------------------------------------------
Pair    | 0.038367   | 0.038367   | 0.038367   |   0.0 | 53.96
Neigh   | 0.0051335  | 0.0051335  | 0.0051335  |   0.0 |  7.22
Comm    | 0.0080925  | 0.0080925  | 0.0080925  |   0.0 | 11.38
Output  | 0.00018617 | 0.00018617 | 0.00018617 |   0.0 |  0.26
Modify  | 0.015992   | 0.015992   | 0.015992   |   0.0 | 22.49
Other   |            | 0.003337   |            |       |  4.69

Nlocal:          32000 ave       32000 max       32000 min
Histogram: 1 0 0 0 0 0 0 0 0 0
Nghost:          19909 ave       19909 max       19909 min
Histogram: 1 0 0 0 0 0 0 0 0 0
Neighs:    1.32046e+06 ave 1.32046e+06 max 1.32046e+06 min
Histogram: 1 0 0 0 0 0 0 0 0 0

Total # of neighbors = 1320465
Ave neighs/atom = 41.264531
Neighbor list builds = 13
Dangerous builds = 0
Total wall time: 0:00:00
