LAMMPS (17 Feb 2022)
KOKKOS mode is enabled (../kokkos.cpp:105)
  will use up to 1 GPU(s) per node
Lattice spacing in x,y,z = 3.615 3.615 3.615
Created orthogonal box = (0 0 0) to (144.6 144.6 144.6)
  1 by 1 by 1 MPI processor grid
Created 256000 atoms
  using lattice units in orthogonal box = (0 0 0) to (144.6 144.6 144.6)
  create_atoms CPU = 0.119 seconds
Reading eam potential file Cu_u3.eam with DATE: 2007-06-11
Neighbor list info ...
  update every 1 steps, delay 5 steps, check yes
  max neighbors/atom: 2000, page size: 100000
  master list distance cutoff = 5.95
  ghost atom cutoff = 5.95
  binsize = 5.95, bins = 25 25 25
  1 neighbor lists, perpetual/occasional/extra = 1 0 0
  (1) pair eam/kk, perpetual
      attributes: half, newton off, kokkos_device
      pair build: half/bin/kk/device
      stencil: full/bin/3d
      bin: kk/device
Setting up Verlet run ...
  Unit style    : metal
  Current step  : 0
  Time step     : 0.005
Per MPI rank memory allocation (min/avg/max) = 59.2 | 59.2 | 59.2 Mbytes
Step Temp E_pair E_mol TotEng Press 
       0         1600      -906240            0   -853295.25    18704.085 
      50    780.37025   -878942.76            0   -853119.94    52325.542 
     100    798.91514   -879560.79            0   -853124.32    51436.878 
Loop time of 0.492496 on 1 procs for 100 steps with 256000 atoms

Performance: 87.716 ns/day, 0.274 hours/ns, 203.047 timesteps/s
175.5% CPU use with 1 MPI tasks x 1 OpenMP threads

MPI task timing breakdown:
Section |  min time  |  avg time  |  max time  |%varavg| %total
---------------------------------------------------------------
Pair    | 0.1633     | 0.1633     | 0.1633     |   0.0 | 33.16
Neigh   | 0.028804   | 0.028804   | 0.028804   |   0.0 |  5.85
Comm    | 0.032872   | 0.032872   | 0.032872   |   0.0 |  6.67
Output  | 0.0002048  | 0.0002048  | 0.0002048  |   0.0 |  0.04
Modify  | 0.25243    | 0.25243    | 0.25243    |   0.0 | 51.25
Other   |            | 0.01488    |            |       |  3.02

Nlocal:         256000 ave      256000 max      256000 min
Histogram: 1 0 0 0 0 0 0 0 0 0
Nghost:          73245 ave       73245 max       73245 min
Histogram: 1 0 0 0 0 0 0 0 0 0
Neighs:    1.01131e+07 ave 1.01131e+07 max 1.01131e+07 min
Histogram: 1 0 0 0 0 0 0 0 0 0

Total # of neighbors = 10113098
Ave neighs/atom = 39.504289
Neighbor list builds = 15
Dangerous builds = 0
Total wall time: 0:00:01
