LAMMPS (17 Feb 2022)
KOKKOS mode is enabled (../kokkos.cpp:105)
  will use up to 1 GPU(s) per node
Lattice spacing in x,y,z = 3.615 3.615 3.615
Created orthogonal box = (0 0 0) to (433.8 433.8 433.8)
  1 by 1 by 1 MPI processor grid
Created 6912000 atoms
  using lattice units in orthogonal box = (0 0 0) to (433.8 433.8 433.8)
  create_atoms CPU = 3.641 seconds
Reading eam potential file Cu_u3.eam with DATE: 2007-06-11
Neighbor list info ...
  update every 1 steps, delay 5 steps, check yes
  max neighbors/atom: 2000, page size: 100000
  master list distance cutoff = 5.95
  ghost atom cutoff = 5.95
  binsize = 5.95, bins = 73 73 73
  1 neighbor lists, perpetual/occasional/extra = 1 0 0
  (1) pair eam/kk, perpetual
      attributes: half, newton on, kokkos_device
      pair build: half/bin/kk/device
      stencil: half/bin/3d
      bin: kk/device
Setting up Verlet run ...
  Unit style    : metal
  Current step  : 0
  Time step     : 0.005
Per MPI rank memory allocation (min/avg/max) = 1332 | 1332 | 1332 Mbytes
Step Temp E_pair E_mol TotEng Press 
       0         1600    -24468480            0    -23038966    18704.155 
      50    780.65547    -23731713            0    -23034240      52291.7 
     100    798.57302    -23747817            0    -23034335    51462.138 
Loop time of 6.00293 on 1 procs for 100 steps with 6912000 atoms

Performance: 7.196 ns/day, 3.335 hours/ns, 16.659 timesteps/s
82.6% CPU use with 1 MPI tasks x 1 OpenMP threads

MPI task timing breakdown:
Section |  min time  |  avg time  |  max time  |%varavg| %total
---------------------------------------------------------------
Pair    | 2.4099     | 2.4099     | 2.4099     |   0.0 | 40.15
Neigh   | 0.54011    | 0.54011    | 0.54011    |   0.0 |  9.00
Comm    | 2.8131     | 2.8131     | 2.8131     |   0.0 | 46.86
Output  | 0.0011881  | 0.0011881  | 0.0011881  |   0.0 |  0.02
Modify  | 0.082305   | 0.082305   | 0.082305   |   0.0 |  1.37
Other   |            | 0.1563     |            |       |  2.60

Nlocal:      6.912e+06 ave   6.912e+06 max   6.912e+06 min
Histogram: 1 0 0 0 0 0 0 0 0 0
Nghost:         622564 ave      622564 max      622564 min
Histogram: 1 0 0 0 0 0 0 0 0 0
Neighs:    2.60766e+08 ave 2.60766e+08 max 2.60766e+08 min
Histogram: 1 0 0 0 0 0 0 0 0 0

Total # of neighbors = 2.6076574e+08
Ave neighs/atom = 37.726525
Neighbor list builds = 15
Dangerous builds = 0
Total wall time: 0:00:14
