LAMMPS (17 Feb 2022)
KOKKOS mode is enabled (../kokkos.cpp:105)
  will use up to 1 GPU(s) per node
Lattice spacing in x,y,z = 3.615 3.615 3.615
Created orthogonal box = (0 0 0) to (578.4 578.4 578.4)
  1 by 1 by 1 MPI processor grid
Created 16384000 atoms
  using lattice units in orthogonal box = (0 0 0) to (578.4 578.4 578.4)
  create_atoms CPU = 6.338 seconds
Reading eam potential file Cu_u3.eam with DATE: 2007-06-11
Neighbor list info ...
  update every 1 steps, delay 5 steps, check yes
  max neighbors/atom: 2000, page size: 100000
  master list distance cutoff = 5.95
  ghost atom cutoff = 5.95
  binsize = 5.95, bins = 98 98 98
  1 neighbor lists, perpetual/occasional/extra = 1 0 0
  (1) pair eam/kk, perpetual
      attributes: half, newton on, kokkos_device
      pair build: half/bin/kk/device
      stencil: half/bin/3d
      bin: kk/device
Setting up Verlet run ...
  Unit style    : metal
  Current step  : 0
  Time step     : 0.005
Per MPI rank memory allocation (min/avg/max) = 3092 | 3092 | 3092 Mbytes
Step Temp E_pair E_mol TotEng Press 
       0         1600    -57999360            0    -54610883    18704.157 
      50    780.77927    -56253216            0    -54599683    52282.705 
     100    798.44137    -56290845            0    -54599907    51468.777 
Loop time of 23.5527 on 1 procs for 100 steps with 16384000 atoms

Performance: 1.834 ns/day, 13.085 hours/ns, 4.246 timesteps/s
140.9% CPU use with 1 MPI tasks x 1 OpenMP threads

MPI task timing breakdown:
Section |  min time  |  avg time  |  max time  |%varavg| %total
---------------------------------------------------------------
Pair    | 8.4554     | 8.4554     | 8.4554     |   0.0 | 35.90
Neigh   | 1.4564     | 1.4564     | 1.4564     |   0.0 |  6.18
Comm    | 12.951     | 12.951     | 12.951     |   0.0 | 54.99
Output  | 0.0013852  | 0.0013852  | 0.0013852  |   0.0 |  0.01
Modify  | 0.256      | 0.256      | 0.256      |   0.0 |  1.09
Other   |            | 0.4328     |            |       |  1.84

Nlocal:     1.6384e+07 ave  1.6384e+07 max  1.6384e+07 min
Histogram: 1 0 0 0 0 0 0 0 0 0
Nghost:    1.09881e+06 ave 1.09881e+06 max 1.09881e+06 min
Histogram: 1 0 0 0 0 0 0 0 0 0
Neighs:    6.18133e+08 ave 6.18133e+08 max 6.18133e+08 min
Histogram: 1 0 0 0 0 0 0 0 0 0

Total # of neighbors = 6.1813276e+08
Ave neighs/atom = 37.72783
Neighbor list builds = 16
Dangerous builds = 0
Total wall time: 0:00:38
