LAMMPS (17 Feb 2022)
KOKKOS mode is enabled (../kokkos.cpp:105)
  will use up to 1 GPU(s) per node
Lattice spacing in x,y,z = 3.615 3.615 3.615
Created orthogonal box = (0 0 0) to (289.2 289.2 289.2)
  1 by 1 by 1 MPI processor grid
Created 2048000 atoms
  using lattice units in orthogonal box = (0 0 0) to (289.2 289.2 289.2)
  create_atoms CPU = 0.748 seconds
Reading eam potential file Cu_u3.eam with DATE: 2007-06-11
Neighbor list info ...
  update every 1 steps, delay 5 steps, check yes
  max neighbors/atom: 2000, page size: 100000
  master list distance cutoff = 5.95
  ghost atom cutoff = 5.95
  binsize = 5.95, bins = 49 49 49
  1 neighbor lists, perpetual/occasional/extra = 1 0 0
  (1) pair eam/kk, perpetual
      attributes: half, newton on, kokkos_device
      pair build: half/bin/kk/device
      stencil: half/bin/3d
      bin: kk/device
Setting up Verlet run ...
  Unit style    : metal
  Current step  : 0
  Time step     : 0.005
Per MPI rank memory allocation (min/avg/max) = 412 | 412 | 412 Mbytes
Step Temp E_pair E_mol TotEng Press 
       0         1600     -7249920            0   -6826360.6    18704.149 
      50    780.81547   -7031660.9            0   -6824959.8    52291.364 
     100    798.21786   -7036295.3            0   -6824987.4    51479.467 
Loop time of 1.11854 on 1 procs for 100 steps with 2048000 atoms

Performance: 38.622 ns/day, 0.621 hours/ns, 89.403 timesteps/s
74.7% CPU use with 1 MPI tasks x 1 OpenMP threads

MPI task timing breakdown:
Section |  min time  |  avg time  |  max time  |%varavg| %total
---------------------------------------------------------------
Pair    | 0.59123    | 0.59123    | 0.59123    |   0.0 | 52.86
Neigh   | 0.073213   | 0.073213   | 0.073213   |   0.0 |  6.55
Comm    | 0.391      | 0.391      | 0.391      |   0.0 | 34.96
Output  | 0.00044186 | 0.00044186 | 0.00044186 |   0.0 |  0.04
Modify  | 0.017951   | 0.017951   | 0.017951   |   0.0 |  1.60
Other   |            | 0.0447     |            |       |  4.00

Nlocal:      2.048e+06 ave   2.048e+06 max   2.048e+06 min
Histogram: 1 0 0 0 0 0 0 0 0 0
Nghost:         280714 ave      280714 max      280714 min
Histogram: 1 0 0 0 0 0 0 0 0 0
Neighs:    7.72626e+07 ave 7.72626e+07 max 7.72626e+07 min
Histogram: 1 0 0 0 0 0 0 0 0 0

Total # of neighbors = 77262570
Ave neighs/atom = 37.725864
Neighbor list builds = 15
Dangerous builds = 0
Total wall time: 0:00:03
