LAMMPS (17 Feb 2022)
KOKKOS mode is enabled (../kokkos.cpp:105)
  will use up to 1 GPU(s) per node
Lattice spacing in x,y,z = 3.615 3.615 3.615
Created orthogonal box = (0 0 0) to (72.3 72.3 72.3)
  1 by 1 by 1 MPI processor grid
Created 32000 atoms
  using lattice units in orthogonal box = (0 0 0) to (72.3 72.3 72.3)
  create_atoms CPU = 0.018 seconds
Reading eam potential file Cu_u3.eam with DATE: 2007-06-11
Neighbor list info ...
  update every 1 steps, delay 5 steps, check yes
  max neighbors/atom: 2000, page size: 100000
  master list distance cutoff = 5.95
  ghost atom cutoff = 5.95
  binsize = 5.95, bins = 13 13 13
  1 neighbor lists, perpetual/occasional/extra = 1 0 0
  (1) pair eam/kk, perpetual
      attributes: half, newton off, kokkos_device
      pair build: half/bin/kk/device
      stencil: full/bin/3d
      bin: kk/device
Setting up Verlet run ...
  Unit style    : metal
  Current step  : 0
  Time step     : 0.005
Per MPI rank memory allocation (min/avg/max) = 9.821 | 9.821 | 9.821 Mbytes
Step Temp E_pair E_mol TotEng Press 
       0         1600      -113280            0   -106662.09    18703.573 
      50    781.69049   -109873.35            0   -106640.13    52273.088 
     100      801.832    -109957.3            0   -106640.77    51322.821 
Loop time of 0.210617 on 1 procs for 100 steps with 32000 atoms

Performance: 205.111 ns/day, 0.117 hours/ns, 474.795 timesteps/s
160.6% CPU use with 1 MPI tasks x 1 OpenMP threads

MPI task timing breakdown:
Section |  min time  |  avg time  |  max time  |%varavg| %total
---------------------------------------------------------------
Pair    | 0.078014   | 0.078014   | 0.078014   |   0.0 | 37.04
Neigh   | 0.010694   | 0.010694   | 0.010694   |   0.0 |  5.08
Comm    | 0.0073511  | 0.0073511  | 0.0073511  |   0.0 |  3.49
Output  | 0.00081058 | 0.00081058 | 0.00081058 |   0.0 |  0.38
Modify  | 0.094444   | 0.094444   | 0.094444   |   0.0 | 44.84
Other   |            | 0.0193     |            |       |  9.17

Nlocal:          32000 ave       32000 max       32000 min
Histogram: 1 0 0 0 0 0 0 0 0 0
Nghost:          19909 ave       19909 max       19909 min
Histogram: 1 0 0 0 0 0 0 0 0 0
Neighs:    1.32046e+06 ave 1.32046e+06 max 1.32046e+06 min
Histogram: 1 0 0 0 0 0 0 0 0 0

Total # of neighbors = 1320465
Ave neighs/atom = 41.264531
Neighbor list builds = 13
Dangerous builds = 0
Total wall time: 0:00:00
