LAMMPS (17 Feb 2022)
KOKKOS mode is enabled (../kokkos.cpp:105)
  will use up to 1 GPU(s) per node
Reading data file ...
  orthogonal box = (3.8607916 4.2313244 6.6940699) to (78.76677 79.137303 81.600049)
  1 by 1 by 1 MPI processor grid
  reading atoms ...
  42556 atoms
  reading velocities ...
  42556 velocities
  scanning bonds ...
  2 = max bonds/atom
  scanning angles ...
  6 = max angles/atom
  scanning dihedrals ...
  10 = max dihedrals/atom
  scanning impropers ...
  4 = max impropers/atom
  reading bonds ...
  41714 bonds
  reading angles ...
  77373 angles
  reading dihedrals ...
  100012 dihedrals
  reading impropers ...
  47867 impropers
Finding 1-2 1-3 1-4 neighbors ...
  special bond factors lj:    0        0        0       
  special bond factors coul:  0        0        0       
     4 = max # of 1-2 neighbors
     6 = max # of 1-3 neighbors
    12 = max # of 1-4 neighbors
    16 = max # of special neighbors
  special bonds CPU = 0.029 seconds
  read_data CPU = 1.063 seconds
Replicating atoms ...
  orthogonal box = (3.8607916 4.2313244 6.6940699) to (453.29666 453.6672 456.12994)
  1 by 1 by 1 MPI processor grid
  9192096 atoms
  9010224 bonds
  16712568 angles
  21602592 dihedrals
  10339272 impropers
Finding 1-2 1-3 1-4 neighbors ...
  special bond factors lj:    0        0        0       
  special bond factors coul:  0        0        0       
     4 = max # of 1-2 neighbors
     6 = max # of 1-3 neighbors
    12 = max # of 1-4 neighbors
    16 = max # of special neighbors
  special bonds CPU = 21.131 seconds
  replicate CPU = 37.912 seconds
PPPM initialization ...
  using 12-bit tables for long-range coulomb (../kspace.cpp:340)
  G vector (1/distance) = 0.29732478
  grid = 270 270 270
  stencil order = 5
  estimated absolute RMS force accuracy = 0.0036969903
  estimated relative force accuracy = 1.1133376e-05
  using double precision hipFFT
  3d grid and FFT values/proc = 21253933 19683000
ERROR: Cannot use the hipFFT library with Kokkos HIP on the host CPUs (../fft3d_kokkos.cpp:58)
Last command: run 100
srun: error: crusher132: task 0: Exited with exit code 1
srun: launch/slurm: _step_signal: Terminating StepId=93400.236
