LAMMPS (17 Feb 2022)
KOKKOS mode is enabled (../kokkos.cpp:105)
  will use up to 1 GPU(s) per node
Lattice spacing in x,y,z = 3.615 3.615 3.615
Created orthogonal box = (0 0 0) to (867.6 867.6 867.6)
  1 by 1 by 1 MPI processor grid
Created 55296000 atoms
  using lattice units in orthogonal box = (0 0 0) to (867.6 867.6 867.6)
  create_atoms CPU = 21.231 seconds
Reading eam potential file Cu_u3.eam with DATE: 2007-06-11
Neighbor list info ...
  update every 1 steps, delay 5 steps, check yes
  max neighbors/atom: 2000, page size: 100000
  master list distance cutoff = 5.95
  ghost atom cutoff = 5.95
  binsize = 5.95, bins = 146 146 146
  1 neighbor lists, perpetual/occasional/extra = 1 0 0
  (1) pair eam/kk, perpetual
      attributes: full, newton on, kokkos_device
      pair build: full/bin/kk/device
      stencil: full/bin/3d
      bin: kk/device
Setting up Verlet run ...
  Unit style    : metal
  Current step  : 0
  Time step     : 0.005
Per MPI rank memory allocation (min/avg/max) = 1.021e+04 | 1.021e+04 | 1.021e+04 Mbytes
Step Temp E_pair E_mol TotEng Press 
       0         1600 -1.9574784e+08            0 -1.8431173e+08    18704.158 
      50    780.75589 -1.8985443e+08            0 -1.8427392e+08    52285.542 
     100    798.38523 -1.8998119e+08            0 -1.8427468e+08    51471.286 
Loop time of 184.755 on 1 procs for 100 steps with 55296000 atoms

Performance: 0.234 ns/day, 102.642 hours/ns, 0.541 timesteps/s
147.6% CPU use with 1 MPI tasks x 1 OpenMP threads

MPI task timing breakdown:
Section |  min time  |  avg time  |  max time  |%varavg| %total
---------------------------------------------------------------
Pair    | 34.842     | 34.842     | 34.842     |   0.0 | 18.86
Neigh   | 11.84      | 11.84      | 11.84      |   0.0 |  6.41
Comm    | 59.904     | 59.904     | 59.904     |   0.0 | 32.42
Output  | 0.21314    | 0.21314    | 0.21314    |   0.0 |  0.12
Modify  | 70.108     | 70.108     | 70.108     |   0.0 | 37.95
Other   |            | 7.848      |            |       |  4.25

Nlocal:     5.5296e+07 ave  5.5296e+07 max  5.5296e+07 min
Histogram: 1 0 0 0 0 0 0 0 0 0
Nghost:     2.4545e+06 ave  2.4545e+06 max  2.4545e+06 min
Histogram: 1 0 0 0 0 0 0 0 0 0
Neighs:              0 ave           0 max           0 min
Histogram: 1 0 0 0 0 0 0 0 0 0
FullNghs:  -1.22626e+08 ave -1.22626e+08 max -1.22626e+08 min
Histogram: 1 0 0 0 0 0 0 0 0 0

Total # of neighbors = 0
Ave neighs/atom = 0
Neighbor list builds = 16
Dangerous builds = 2
Total wall time: 0:03:49
