LAMMPS (17 Feb 2022)
KOKKOS mode is enabled (../kokkos.cpp:105)
  will use up to 1 GPU(s) per node
Lattice spacing in x,y,z = 3.615 3.615 3.615
Created orthogonal box = (0 0 0) to (578.4 578.4 578.4)
  1 by 1 by 1 MPI processor grid
Created 16384000 atoms
  using lattice units in orthogonal box = (0 0 0) to (578.4 578.4 578.4)
  create_atoms CPU = 8.682 seconds
Reading eam potential file Cu_u3.eam with DATE: 2007-06-11
Neighbor list info ...
  update every 1 steps, delay 5 steps, check yes
  max neighbors/atom: 2000, page size: 100000
  master list distance cutoff = 5.95
  ghost atom cutoff = 5.95
  binsize = 5.95, bins = 98 98 98
  1 neighbor lists, perpetual/occasional/extra = 1 0 0
  (1) pair eam/kk, perpetual
      attributes: full, newton on, kokkos_device
      pair build: full/bin/kk/device
      stencil: full/bin/3d
      bin: kk/device
Setting up Verlet run ...
  Unit style    : metal
  Current step  : 0
  Time step     : 0.005
Per MPI rank memory allocation (min/avg/max) = 3090 | 3090 | 3090 Mbytes
Step Temp E_pair E_mol TotEng Press 
       0         1600    -57999360            0    -54610883    18704.157 
      50    780.57145    -56252768            0    -54599675    52292.906 
     100    798.49243    -56290949            0    -54599903     51466.55 
Loop time of 50.0098 on 1 procs for 100 steps with 16384000 atoms

Performance: 0.864 ns/day, 27.783 hours/ns, 2.000 timesteps/s
94.6% CPU use with 1 MPI tasks x 1 OpenMP threads

MPI task timing breakdown:
Section |  min time  |  avg time  |  max time  |%varavg| %total
---------------------------------------------------------------
Pair    | 9.4743     | 9.4743     | 9.4743     |   0.0 | 18.94
Neigh   | 2.5549     | 2.5549     | 2.5549     |   0.0 |  5.11
Comm    | 14.61      | 14.61      | 14.61      |   0.0 | 29.21
Output  | 0.077423   | 0.077423   | 0.077423   |   0.0 |  0.15
Modify  | 20.356     | 20.356     | 20.356     |   0.0 | 40.70
Other   |            | 2.937      |            |       |  5.87

Nlocal:     1.6384e+07 ave  1.6384e+07 max  1.6384e+07 min
Histogram: 1 0 0 0 0 0 0 0 0 0
Nghost:    1.09882e+06 ave 1.09882e+06 max 1.09882e+06 min
Histogram: 1 0 0 0 0 0 0 0 0 0
Neighs:              0 ave           0 max           0 min
Histogram: 1 0 0 0 0 0 0 0 0 0
FullNghs:  1.23619e+09 ave 1.23619e+09 max 1.23619e+09 min
Histogram: 1 0 0 0 0 0 0 0 0 0

Total # of neighbors = 1.236192e+09
Ave neighs/atom = 75.451172
Neighbor list builds = 15
Dangerous builds = 0
Total wall time: 0:01:09
