LAMMPS (17 Feb 2022)
KOKKOS mode is enabled (../kokkos.cpp:105)
  will use up to 1 GPU(s) per node
Lattice spacing in x,y,z = 1.6795962 1.6795962 1.6795962
Created orthogonal box = (0 0 0) to (33.591924 33.591924 33.591924)
  1 by 1 by 1 MPI processor grid
Created 32000 atoms
  using lattice units in orthogonal box = (0 0 0) to (33.591924 33.591924 33.591924)
  create_atoms CPU = 0.020 seconds
  generated 0 of 0 mixed pair_coeff terms from geometric mixing rule
Neighbor list info ...
  update every 20 steps, delay 0 steps, check no
  max neighbors/atom: 2000, page size: 100000
  master list distance cutoff = 2.8
  ghost atom cutoff = 2.8
  binsize = 2.8, bins = 12 12 12
  1 neighbor lists, perpetual/occasional/extra = 1 0 0
  (1) pair lj/cut/kk, perpetual
      attributes: half, newton on, kokkos_device
      pair build: half/bin/kk/device
      stencil: half/bin/3d
      bin: kk/device
Setting up Verlet run ...
  Unit style    : lj
  Current step  : 0
  Time step     : 0.005
Per MPI rank memory allocation (min/avg/max) = 7.437 | 7.437 | 7.437 Mbytes
Step Temp E_pair E_mol TotEng Press 
       0         1.44   -6.7733681            0   -4.6134356   -5.0197073 
     100   0.76087792   -5.7635991            0   -4.6223179   0.18609556 
Loop time of 0.0977146 on 1 procs for 100 steps with 32000 atoms

Performance: 442103.914 tau/day, 1023.389 timesteps/s
100.1% CPU use with 1 MPI tasks x 1 OpenMP threads

MPI task timing breakdown:
Section |  min time  |  avg time  |  max time  |%varavg| %total
---------------------------------------------------------------
Pair    | 0.011488   | 0.011488   | 0.011488   |   0.0 | 11.76
Neigh   | 0.0038541  | 0.0038541  | 0.0038541  |   0.0 |  3.94
Comm    | 0.040658   | 0.040658   | 0.040658   |   0.0 | 41.61
Output  | 0.00023183 | 0.00023183 | 0.00023183 |   0.0 |  0.24
Modify  | 0.038845   | 0.038845   | 0.038845   |   0.0 | 39.75
Other   |            | 0.002638   |            |       |  2.70

Nlocal:          32000 ave       32000 max       32000 min
Histogram: 1 0 0 0 0 0 0 0 0 0
Nghost:          19675 ave       19675 max       19675 min
Histogram: 1 0 0 0 0 0 0 0 0 0
Neighs:    1.20176e+06 ave 1.20176e+06 max 1.20176e+06 min
Histogram: 1 0 0 0 0 0 0 0 0 0

Total # of neighbors = 1201758
Ave neighs/atom = 37.554938
Neighbor list builds = 5
Dangerous builds not checked
Total wall time: 0:00:00
