LAMMPS (17 Feb 2022)
KOKKOS mode is enabled (../kokkos.cpp:105)
  will use up to 1 GPU(s) per node
Reading data file ...
  orthogonal box = (3.8607916 4.2313244 6.6940699) to (78.76677 79.137303 81.600049)
  1 by 1 by 1 MPI processor grid
  reading atoms ...
  42556 atoms
  reading velocities ...
  42556 velocities
  scanning bonds ...
  2 = max bonds/atom
  scanning angles ...
  6 = max angles/atom
  scanning dihedrals ...
  10 = max dihedrals/atom
  scanning impropers ...
  4 = max impropers/atom
  reading bonds ...
  41714 bonds
  reading angles ...
  77373 angles
  reading dihedrals ...
  100012 dihedrals
  reading impropers ...
  47867 impropers
Finding 1-2 1-3 1-4 neighbors ...
  special bond factors lj:    0        0        0       
  special bond factors coul:  0        0        0       
     4 = max # of 1-2 neighbors
     6 = max # of 1-3 neighbors
    12 = max # of 1-4 neighbors
    16 = max # of special neighbors
  special bonds CPU = 0.021 seconds
  read_data CPU = 0.643 seconds
Replicating atoms ...
  orthogonal box = (3.8607916 4.2313244 6.6940699) to (453.29666 453.6672 456.12994)
  1 by 1 by 1 MPI processor grid
  9192096 atoms
  9010224 bonds
  16712568 angles
  21602592 dihedrals
  10339272 impropers
Finding 1-2 1-3 1-4 neighbors ...
  special bond factors lj:    0        0        0       
  special bond factors coul:  0        0        0       
     4 = max # of 1-2 neighbors
     6 = max # of 1-3 neighbors
    12 = max # of 1-4 neighbors
    16 = max # of special neighbors
  special bonds CPU = 21.679 seconds
  replicate CPU = 37.856 seconds
PPPM initialization ...
  using 12-bit tables for long-range coulomb (../kspace.cpp:340)
  G vector (1/distance) = 0.29732478
  grid = 270 270 270
  stencil order = 5
  estimated absolute RMS force accuracy = 0.0036969903
  estimated relative force accuracy = 1.1133376e-05
  using double precision cuFFT
  3d grid and FFT values/proc = 21253933 19683000
  generated 0 of 36 mixed pair_coeff terms from geometric mixing rule
Neighbor list info ...
  update every 1 steps, delay 10 steps, check yes
  max neighbors/atom: 2000, page size: 100000
  master list distance cutoff = 11
  ghost atom cutoff = 11
  binsize = 11, bins = 41 41 41
  1 neighbor lists, perpetual/occasional/extra = 1 0 0
  (1) pair lj/class2/coul/long/kk, perpetual
      attributes: half, newton on, kokkos_device
      pair build: half/bin/kk/device
      stencil: half/bin/3d
      bin: kk/device
Setting up Verlet run ...
  Unit style    : real
  Current step  : 0
  Time step     : 0.01
Per MPI rank memory allocation (min/avg/max) = 1.127e+04 | 1.127e+04 | 1.127e+04 Mbytes
---------------- Step        0 ----- CPU =      0.0000 (sec) ----------------
TotEng   =   6497611.5063 KinEng   =   8498075.6219 Temp     =       310.1500 
PotEng   =  -2000464.1156 E_bond   =   3023438.1889 E_angle  =   5747691.2396 
E_dihed  =  -6035441.5743 E_impro  =    178671.6685 E_vdwl   =  -3970535.8991 
E_coul   =  23361386.1763 E_long   = -24305673.9155 Press    =     -5452.8530 
---------------- Step      100 ----- CPU =     71.5141 (sec) ----------------
TotEng   =   6497595.3121 KinEng   =   8515429.1338 Temp     =       310.7833 
PotEng   =  -2017833.8217 E_bond   =   3008174.4803 E_angle  =   5746693.4064 
E_dihed  =  -6035586.0688 E_impro  =    178857.9328 E_vdwl   =  -3970779.3946 
E_coul   =  23360489.0436 E_long   = -24305683.2215 Press    =     -5339.1911 
Loop time of 71.5141 on 1 procs for 100 steps with 9192096 atoms

Performance: 0.001 ns/day, 19865.032 hours/ns, 1.398 timesteps/s
43.6% CPU use with 1 MPI tasks x 1 OpenMP threads

MPI task timing breakdown:
Section |  min time  |  avg time  |  max time  |%varavg| %total
---------------------------------------------------------------
Pair    | 2.3544     | 2.3544     | 2.3544     |   0.0 |  3.29
Bond    | 14.551     | 14.551     | 14.551     |   0.0 | 20.35
Kspace  | 45.61      | 45.61      | 45.61      |   0.0 | 63.78
Neigh   | 0          | 0          | 0          |   0.0 |  0.00
Comm    | 6.9509     | 6.9509     | 6.9509     |   0.0 |  9.72
Output  | 0.00063613 | 0.00063613 | 0.00063613 |   0.0 |  0.00
Modify  | 1.8859     | 1.8859     | 1.8859     |   0.0 |  2.64
Other   |            | 0.1613     |            |       |  0.23

Nlocal:     9.1921e+06 ave  9.1921e+06 max  9.1921e+06 min
Histogram: 1 0 0 0 0 0 0 0 0 0
Nghost:    1.41744e+06 ave 1.41744e+06 max 1.41744e+06 min
Histogram: 1 0 0 0 0 0 0 0 0 0
Neighs:    -1.69987e+09 ave -1.69987e+09 max -1.69987e+09 min
Histogram: 1 0 0 0 0 0 0 0 0 0

Total # of neighbors = 0
Ave neighs/atom = 0
Ave special neighs/atom = 10.296973
Neighbor list builds = 0
Dangerous builds = 0
Total wall time: 0:02:36
