LAMMPS (17 Feb 2022)
KOKKOS mode is enabled (../kokkos.cpp:105)
  will use up to 1 GPU(s) per node
Lattice spacing in x,y,z = 3.615 3.615 3.615
Created orthogonal box = (0 0 0) to (578.4 578.4 578.4)
  1 by 1 by 1 MPI processor grid
Created 16384000 atoms
  using lattice units in orthogonal box = (0 0 0) to (578.4 578.4 578.4)
  create_atoms CPU = 8.766 seconds
Reading eam potential file Cu_u3.eam with DATE: 2007-06-11
Neighbor list info ...
  update every 1 steps, delay 5 steps, check yes
  max neighbors/atom: 2000, page size: 100000
  master list distance cutoff = 5.95
  ghost atom cutoff = 5.95
  binsize = 5.95, bins = 98 98 98
  1 neighbor lists, perpetual/occasional/extra = 1 0 0
  (1) pair eam/kk, perpetual
      attributes: full, newton off, kokkos_device
      pair build: full/bin/kk/device
      stencil: full/bin/3d
      bin: kk/device
Setting up Verlet run ...
  Unit style    : metal
  Current step  : 0
  Time step     : 0.005
Per MPI rank memory allocation (min/avg/max) = 3092 | 3092 | 3092 Mbytes
Step Temp E_pair E_mol TotEng Press 
       0         1600    -57999360            0    -54610883    18704.157 
      50    780.57145    -56252768            0    -54599675    52292.906 
     100    798.49243    -56290949            0    -54599903     51466.55 
Loop time of 12.5505 on 1 procs for 100 steps with 16384000 atoms

Performance: 3.442 ns/day, 6.972 hours/ns, 7.968 timesteps/s
77.5% CPU use with 1 MPI tasks x 1 OpenMP threads

MPI task timing breakdown:
Section |  min time  |  avg time  |  max time  |%varavg| %total
---------------------------------------------------------------
Pair    | 4.494      | 4.494      | 4.494      |   0.0 | 35.81
Neigh   | 2.0034     | 2.0034     | 2.0034     |   0.0 | 15.96
Comm    | 0.33693    | 0.33693    | 0.33693    |   0.0 |  2.68
Output  | 0.0023072  | 0.0023072  | 0.0023072  |   0.0 |  0.02
Modify  | 5.3414     | 5.3414     | 5.3414     |   0.0 | 42.56
Other   |            | 0.3724     |            |       |  2.97

Nlocal:     1.6384e+07 ave  1.6384e+07 max  1.6384e+07 min
Histogram: 1 0 0 0 0 0 0 0 0 0
Nghost:    1.09882e+06 ave 1.09882e+06 max 1.09882e+06 min
Histogram: 1 0 0 0 0 0 0 0 0 0
Neighs:              0 ave           0 max           0 min
Histogram: 1 0 0 0 0 0 0 0 0 0
FullNghs:  1.23619e+09 ave 1.23619e+09 max 1.23619e+09 min
Histogram: 1 0 0 0 0 0 0 0 0 0

Total # of neighbors = 1.236192e+09
Ave neighs/atom = 75.451172
Neighbor list builds = 15
Dangerous builds = 0
Total wall time: 0:00:31
