LAMMPS (17 Feb 2022)
KOKKOS mode is enabled (../kokkos.cpp:105)
  will use up to 1 GPU(s) per node
Lattice spacing in x,y,z = 3.615 3.615 3.615
Created orthogonal box = (0 0 0) to (433.8 433.8 433.8)
  1 by 1 by 1 MPI processor grid
Created 6912000 atoms
  using lattice units in orthogonal box = (0 0 0) to (433.8 433.8 433.8)
  create_atoms CPU = 3.716 seconds
Reading eam potential file Cu_u3.eam with DATE: 2007-06-11
Neighbor list info ...
  update every 1 steps, delay 5 steps, check yes
  max neighbors/atom: 2000, page size: 100000
  master list distance cutoff = 5.95
  ghost atom cutoff = 5.95
  binsize = 5.95, bins = 73 73 73
  1 neighbor lists, perpetual/occasional/extra = 1 0 0
  (1) pair eam/kk, perpetual
      attributes: full, newton off, kokkos_device
      pair build: full/bin/kk/device
      stencil: full/bin/3d
      bin: kk/device
Setting up Verlet run ...
  Unit style    : metal
  Current step  : 0
  Time step     : 0.005
Per MPI rank memory allocation (min/avg/max) = 1332 | 1332 | 1332 Mbytes
Step Temp E_pair E_mol TotEng Press 
       0         1600    -24468480            0    -23038966    18704.155 
      50    780.65547    -23731713            0    -23034240      52291.7 
     100    798.57302    -23747817            0    -23034335    51462.138 
Loop time of 5.14557 on 1 procs for 100 steps with 6912000 atoms

Performance: 8.396 ns/day, 2.859 hours/ns, 19.434 timesteps/s
78.3% CPU use with 1 MPI tasks x 1 OpenMP threads

MPI task timing breakdown:
Section |  min time  |  avg time  |  max time  |%varavg| %total
---------------------------------------------------------------
Pair    | 1.7998     | 1.7998     | 1.7998     |   0.0 | 34.98
Neigh   | 0.84266    | 0.84266    | 0.84266    |   0.0 | 16.38
Comm    | 0.17585    | 0.17585    | 0.17585    |   0.0 |  3.42
Output  | 0.0011394  | 0.0011394  | 0.0011394  |   0.0 |  0.02
Modify  | 2.1604     | 2.1604     | 2.1604     |   0.0 | 41.99
Other   |            | 0.1658     |            |       |  3.22

Nlocal:      6.912e+06 ave   6.912e+06 max   6.912e+06 min
Histogram: 1 0 0 0 0 0 0 0 0 0
Nghost:         622564 ave      622564 max      622564 min
Histogram: 1 0 0 0 0 0 0 0 0 0
Neighs:              0 ave           0 max           0 min
Histogram: 1 0 0 0 0 0 0 0 0 0
FullNghs:  5.21531e+08 ave 5.21531e+08 max 5.21531e+08 min
Histogram: 1 0 0 0 0 0 0 0 0 0

Total # of neighbors = 5.2153149e+08
Ave neighs/atom = 75.453051
Neighbor list builds = 15
Dangerous builds = 0
Total wall time: 0:00:13
