LAMMPS (17 Feb 2022)
KOKKOS mode is enabled (../kokkos.cpp:105)
  will use up to 1 GPU(s) per node
Reading data file ...
  orthogonal box = (0 0 0) to (40 20 37.2886)
  1 by 1 by 1 MPI processor grid
  reading atoms ...
  32000 atoms
  reading velocities ...
  32000 velocities
  read_data CPU = 0.161 seconds
Replicating atoms ...
  orthogonal box = (0 0 0) to (80 40 37.292229)
  1 by 1 by 1 MPI processor grid
  128000 atoms
  replicate CPU = 0.072 seconds
3648 atoms in group bottom
124352 atoms in group active
  generated 0 of 1 mixed pair_coeff terms from geometric mixing rule
Neighbor list info ...
  update every 1 steps, delay 0 steps, check yes
  max neighbors/atom: 2000, page size: 100000
  master list distance cutoff = 1.1
  ghost atom cutoff = 1.1
  binsize = 1.1, bins = 73 37 34
  1 neighbor lists, perpetual/occasional/extra = 1 0 0
  (1) pair gran/hooke/history/kk, perpetual
      attributes: half, newton off, size, history, kokkos_device
      pair build: half/size/bin/kk/device
      stencil: full/bin/3d
      bin: kk/device
Setting up Verlet run ...
  Unit style    : lj
  Current step  : 0
  Time step     : 0.0001
Per MPI rank memory allocation (min/avg/max) = 154.7 | 154.7 | 154.7 Mbytes
Step Atoms KinEng c_1 Volume 
       0   128000    3136556.5    6404.5051    119335.13 
     100   128000    3137170.2    6284.7755    119338.83 
     200   128000    3137696.3    6296.7559    119344.92 
Loop time of 0.653058 on 1 procs for 200 steps with 128000 atoms

Performance: 2646.012 tau/day, 306.251 timesteps/s
121.5% CPU use with 1 MPI tasks x 1 OpenMP threads

MPI task timing breakdown:
Section |  min time  |  avg time  |  max time  |%varavg| %total
---------------------------------------------------------------
Pair    | 0.26071    | 0.26071    | 0.26071    |   0.0 | 39.92
Neigh   | 0.014483   | 0.014483   | 0.014483   |   0.0 |  2.22
Comm    | 0.24999    | 0.24999    | 0.24999    |   0.0 | 38.28
Output  | 0.00080322 | 0.00080322 | 0.00080322 |   0.0 |  0.12
Modify  | 0.081118   | 0.081118   | 0.081118   |   0.0 | 12.42
Other   |            | 0.04595    |            |       |  7.04

Nlocal:         128000 ave      128000 max      128000 min
Histogram: 1 0 0 0 0 0 0 0 0 0
Nghost:          10785 ave       10785 max       10785 min
Histogram: 1 0 0 0 0 0 0 0 0 0
Neighs:         451806 ave      451806 max      451806 min
Histogram: 1 0 0 0 0 0 0 0 0 0

Total # of neighbors = 451806
Ave neighs/atom = 3.5297344
Neighbor list builds = 5
Dangerous builds = 0
Total wall time: 0:00:01
