LAMMPS (17 Feb 2022)
KOKKOS mode is enabled (../kokkos.cpp:105)
  will use up to 1 GPU(s) per node
Reading data file ...
  orthogonal box = (0.11598334 0.11598334 0.11598334) to (76.884017 76.884017 76.884017)
  1 by 1 by 1 MPI processor grid
WARNING: Pair style in data file differs from currently defined pair style (../read_data.cpp:613)
  reading atoms ...
  45000 atoms
  reading velocities ...
  45000 velocities
  scanning bonds ...
  1 = max bonds/atom
  scanning angles ...
  1 = max angles/atom
  reading bonds ...
  30000 bonds
  reading angles ...
  15000 angles
Finding 1-2 1-3 1-4 neighbors ...
  special bond factors lj:    0        0        0       
  special bond factors coul:  0        0        0       
     2 = max # of 1-2 neighbors
     1 = max # of 1-3 neighbors
     1 = max # of 1-4 neighbors
     2 = max # of special neighbors
  special bonds CPU = 0.012 seconds
  read_data CPU = 0.450 seconds
Replicating atoms ...
  orthogonal box = (0.11598334 0.11598334 0.11598334) to (153.65205 153.65205 153.65205)
  1 by 1 by 1 MPI processor grid
  360000 atoms
  240000 bonds
  120000 angles
Finding 1-2 1-3 1-4 neighbors ...
  special bond factors lj:    0        0        0       
  special bond factors coul:  0        0        0       
     2 = max # of 1-2 neighbors
     1 = max # of 1-3 neighbors
     1 = max # of 1-4 neighbors
     2 = max # of special neighbors
  special bonds CPU = 0.092 seconds
  replicate CPU = 0.560 seconds
PPPM initialization ...
  using 12-bit tables for long-range coulomb (../kspace.cpp:340)
  G vector (1/distance) = 0.23076479
  grid = 96 96 96
  stencil order = 5
  estimated absolute RMS force accuracy = 0.0035267981
  estimated relative force accuracy = 1.0620848e-05
  using double precision hipFFT
  3d grid and FFT values/proc = 1092727 884736
  generated 0 of 1 mixed pair_coeff terms from geometric mixing rule
Neighbor list info ...
  update every 1 steps, delay 10 steps, check yes
  max neighbors/atom: 2000, page size: 100000
  master list distance cutoff = 15
  ghost atom cutoff = 15
  binsize = 15, bins = 11 11 11
  1 neighbor lists, perpetual/occasional/extra = 1 0 0
  (1) pair lj/class2/coul/long/kk, perpetual
      attributes: half, newton on, kokkos_device
      pair build: half/bin/kk/device
      stencil: half/bin/3d
      bin: kk/device
Setting up Verlet run ...
  Unit style    : real
  Current step  : 0
  Time step     : 0.01
Per MPI rank memory allocation (min/avg/max) = 363.3 | 363.3 | 363.3 Mbytes
---------------- Step        0 ----- CPU =      0.0000 (sec) ----------------
TotEng   =  -1170351.9129 KinEng   =    332818.4408 Temp     =       310.1500 
PotEng   =  -1503170.3537 E_bond   =         0.0035 E_angle  =         0.0000 
E_dihed  =         0.0000 E_impro  =         0.0000 E_vdwl   =    -43820.3411 
E_coul   =   3950798.1002 E_long   =  -5410148.1163 Press    =     -2987.0174 
---------------- Step      100 ----- CPU =      7.2369 (sec) ----------------
TotEng   =  -1170351.7606 KinEng   =    323387.6726 Temp     =       301.3616 
PotEng   =  -1493739.4332 E_bond   =     27590.4319 E_angle  =      3929.2038 
E_dihed  =         0.0000 E_impro  =         0.0000 E_vdwl   =    -43794.3964 
E_coul   =   3928654.0136 E_long   =  -5410118.6861 Press    =     -8750.7092 
Loop time of 7.23692 on 1 procs for 100 steps with 360000 atoms

Performance: 0.012 ns/day, 2010.254 hours/ns, 13.818 timesteps/s
156.2% CPU use with 1 MPI tasks x 1 OpenMP threads

MPI task timing breakdown:
Section |  min time  |  avg time  |  max time  |%varavg| %total
---------------------------------------------------------------
Pair    | 0.074386   | 0.074386   | 0.074386   |   0.0 |  1.03
Bond    | 4.1326     | 4.1326     | 4.1326     |   0.0 | 57.10
Kspace  | 2.3517     | 2.3517     | 2.3517     |   0.0 | 32.50
Neigh   | 0          | 0          | 0          |   0.0 |  0.00
Comm    | 0.64332    | 0.64332    | 0.64332    |   0.0 |  8.89
Output  | 0.00011715 | 0.00011715 | 0.00011715 |   0.0 |  0.00
Modify  | 0.014506   | 0.014506   | 0.014506   |   0.0 |  0.20
Other   |            | 0.02032    |            |       |  0.28

Nlocal:         360000 ave      360000 max      360000 min
Histogram: 1 0 0 0 0 0 0 0 0 0
Nghost:         254635 ave      254635 max      254635 min
Histogram: 1 0 0 0 0 0 0 0 0 0
Neighs:    2.52963e+08 ave 2.52963e+08 max 2.52963e+08 min
Histogram: 1 0 0 0 0 0 0 0 0 0

Total # of neighbors = 2.5296292e+08
Ave neighs/atom = 702.67478
Ave special neighs/atom = 2
Neighbor list builds = 0
Dangerous builds = 0
Total wall time: 0:00:11
