LAMMPS (17 Feb 2022)
KOKKOS mode is enabled (../kokkos.cpp:105)
  will use up to 1 GPU(s) per node
Lattice spacing in x,y,z = 5.431 5.431 5.431
Created orthogonal box = (0 0 0) to (108.62 108.62 54.31)
  1 by 1 by 1 MPI processor grid
Created 32000 atoms
  using lattice units in orthogonal box = (0 0 0) to (108.62 108.62 54.31)
  create_atoms CPU = 0.012 seconds
Replicating atoms ...
  orthogonal box = (0 0 0) to (217.24 217.24 108.62)
  1 by 1 by 1 MPI processor grid
  256000 atoms
  replicate CPU = 0.070 seconds
Reading tersoff potential file Si.tersoff with DATE: 2007-10-25
Neighbor list info ...
  update every 1 steps, delay 5 steps, check yes
  max neighbors/atom: 2000, page size: 100000
  master list distance cutoff = 4.2
  ghost atom cutoff = 4.2
  binsize = 4.2, bins = 52 52 26
  1 neighbor lists, perpetual/occasional/extra = 1 0 0
  (1) pair tersoff/kk, perpetual
      attributes: full, newton on, kokkos_device
      pair build: full/bin/kk/device
      stencil: full/bin/3d
      bin: kk/device
Setting up Verlet run ...
  Unit style    : metal
  Current step  : 0
  Time step     : 0.001
Per MPI rank memory allocation (min/avg/max) = 50.69 | 50.69 | 50.69 Mbytes
Step Temp E_pair E_mol TotEng Press 
       0         1000   -1185385.5            0     -1152295     7019.632 
     100    1142.3218   -1149328.9            0   -1111528.9    3377.3973 
Loop time of 0.600654 on 1 procs for 100 steps with 256000 atoms

Performance: 14.384 ns/day, 1.668 hours/ns, 166.485 timesteps/s
96.3% CPU use with 1 MPI tasks x 1 OpenMP threads

MPI task timing breakdown:
Section |  min time  |  avg time  |  max time  |%varavg| %total
---------------------------------------------------------------
Pair    | 0.050603   | 0.050603   | 0.050603   |   0.0 |  8.42
Neigh   | 0.021153   | 0.021153   | 0.021153   |   0.0 |  3.52
Comm    | 0.33871    | 0.33871    | 0.33871    |   0.0 | 56.39
Output  | 0.00065627 | 0.00065627 | 0.00065627 |   0.0 |  0.11
Modify  | 0.15797    | 0.15797    | 0.15797    |   0.0 | 26.30
Other   |            | 0.03156    |            |       |  5.26

Nlocal:         256000 ave      256000 max      256000 min
Histogram: 1 0 0 0 0 0 0 0 0 0
Nghost:          43018 ave       43018 max       43018 min
Histogram: 1 0 0 0 0 0 0 0 0 0
Neighs:              0 ave           0 max           0 min
Histogram: 1 0 0 0 0 0 0 0 0 0
FullNghs:  4.23931e+06 ave 4.23931e+06 max 4.23931e+06 min
Histogram: 1 0 0 0 0 0 0 0 0 0

Total # of neighbors = 4239314
Ave neighs/atom = 16.55982
Neighbor list builds = 11
Dangerous builds = 8
Total wall time: 0:00:01
