LAMMPS (17 Feb 2022)
KOKKOS mode is enabled (../kokkos.cpp:105)
  will use up to 1 GPU(s) per node
Lattice spacing in x,y,z = 1.6795962 1.6795962 1.6795962
Created orthogonal box = (0 0 0) to (268.73539 268.73539 268.73539)
  1 by 1 by 1 MPI processor grid
Created 16384000 atoms
  using lattice units in orthogonal box = (0 0 0) to (268.73539 268.73539 268.73539)
  create_atoms CPU = 3.722 seconds
  generated 0 of 0 mixed pair_coeff terms from geometric mixing rule
Neighbor list info ...
  update every 20 steps, delay 0 steps, check no
  max neighbors/atom: 2000, page size: 100000
  master list distance cutoff = 2.8
  ghost atom cutoff = 2.8
  binsize = 2.8, bins = 96 96 96
  1 neighbor lists, perpetual/occasional/extra = 1 0 0
  (1) pair lj/cut/kk, perpetual
      attributes: half, newton off, kokkos_device
      pair build: half/bin/kk/device
      stencil: full/bin/3d
      bin: kk/device
Setting up Verlet run ...
  Unit style    : lj
  Current step  : 0
  Time step     : 0.005
Per MPI rank memory allocation (min/avg/max) = 2287 | 2287 | 2287 Mbytes
Step Temp E_pair E_mol TotEng Press 
       0         1.44   -6.7733681            0   -4.6133682   -5.0196693 
     100   0.75918554   -5.7610896            0   -4.6223114   0.19195085 
Loop time of 38.8562 on 1 procs for 100 steps with 16384000 atoms

Performance: 1111.792 tau/day, 2.574 timesteps/s
162.4% CPU use with 1 MPI tasks x 1 OpenMP threads

MPI task timing breakdown:
Section |  min time  |  avg time  |  max time  |%varavg| %total
---------------------------------------------------------------
Pair    | 3.0736     | 3.0736     | 3.0736     |   0.0 |  7.91
Neigh   | 0.75427    | 0.75427    | 0.75427    |   0.0 |  1.94
Comm    | 7.3633     | 7.3633     | 7.3633     |   0.0 | 18.95
Output  | 0.034547   | 0.034547   | 0.034547   |   0.0 |  0.09
Modify  | 27.256     | 27.256     | 27.256     |   0.0 | 70.14
Other   |            | 0.3749     |            |       |  0.96

Nlocal:     1.6384e+07 ave  1.6384e+07 max  1.6384e+07 min
Histogram: 1 0 0 0 0 0 0 0 0 0
Nghost:    1.08561e+06 ave 1.08561e+06 max 1.08561e+06 min
Histogram: 1 0 0 0 0 0 0 0 0 0
Neighs:    6.22569e+08 ave 6.22569e+08 max 6.22569e+08 min
Histogram: 1 0 0 0 0 0 0 0 0 0

Total # of neighbors = 6.2256907e+08
Ave neighs/atom = 37.998601
Neighbor list builds = 5
Dangerous builds not checked
Total wall time: 0:00:51
