LAMMPS (17 Feb 2022)
KOKKOS mode is enabled (../kokkos.cpp:105)
  will use up to 1 GPU(s) per node
Lattice spacing in x,y,z = 3.615 3.615 3.615
Created orthogonal box = (0 0 0) to (433.8 433.8 433.8)
  1 by 1 by 1 MPI processor grid
Created 6912000 atoms
  using lattice units in orthogonal box = (0 0 0) to (433.8 433.8 433.8)
  create_atoms CPU = 2.146 seconds
Reading eam potential file Cu_u3.eam with DATE: 2007-06-11
Neighbor list info ...
  update every 1 steps, delay 5 steps, check yes
  max neighbors/atom: 2000, page size: 100000
  master list distance cutoff = 5.95
  ghost atom cutoff = 5.95
  binsize = 5.95, bins = 73 73 73
  1 neighbor lists, perpetual/occasional/extra = 1 0 0
  (1) pair eam/kk, perpetual
      attributes: full, newton off, kokkos_device
      pair build: full/bin/kk/device
      stencil: full/bin/3d
      bin: kk/device
Setting up Verlet run ...
  Unit style    : metal
  Current step  : 0
  Time step     : 0.005
Per MPI rank memory allocation (min/avg/max) = 1332 | 1332 | 1332 Mbytes
Step Temp E_pair E_mol TotEng Press 
       0         1600    -24468480            0    -23038966    18704.155 
      50    781.01113    -23732032            0    -23034241    52276.066 
     100    798.24484    -23747521            0    -23034332    51480.378 
Loop time of 14.0615 on 1 procs for 100 steps with 6912000 atoms

Performance: 3.072 ns/day, 7.812 hours/ns, 7.112 timesteps/s
91.0% CPU use with 1 MPI tasks x 1 OpenMP threads

MPI task timing breakdown:
Section |  min time  |  avg time  |  max time  |%varavg| %total
---------------------------------------------------------------
Pair    | 3.0834     | 3.0834     | 3.0834     |   0.0 | 21.93
Neigh   | 0.70301    | 0.70301    | 0.70301    |   0.0 |  5.00
Comm    | 8.5052     | 8.5052     | 8.5052     |   0.0 | 60.49
Output  | 0.0010016  | 0.0010016  | 0.0010016  |   0.0 |  0.01
Modify  | 1.6131     | 1.6131     | 1.6131     |   0.0 | 11.47
Other   |            | 0.1558     |            |       |  1.11

Nlocal:      6.912e+06 ave   6.912e+06 max   6.912e+06 min
Histogram: 1 0 0 0 0 0 0 0 0 0
Nghost:         622572 ave      622572 max      622572 min
Histogram: 1 0 0 0 0 0 0 0 0 0
Neighs:              0 ave           0 max           0 min
Histogram: 1 0 0 0 0 0 0 0 0 0
FullNghs:  5.21563e+08 ave 5.21563e+08 max 5.21563e+08 min
Histogram: 1 0 0 0 0 0 0 0 0 0

Total # of neighbors = 5.2156339e+08
Ave neighs/atom = 75.457666
Neighbor list builds = 16
Dangerous builds = 0
Total wall time: 0:00:20
