LAMMPS (17 Feb 2022)
KOKKOS mode is enabled (../kokkos.cpp:105)
  will use up to 1 GPU(s) per node
Reading data file ...
  orthogonal box = (-27.5 -38.5 -36.3646) to (27.5 38.5 36.3615)
  1 by 1 by 1 MPI processor grid
  reading atoms ...
  32000 atoms
  reading velocities ...
  32000 velocities
  scanning bonds ...
  4 = max bonds/atom
  scanning angles ...
  18 = max angles/atom
  scanning dihedrals ...
  40 = max dihedrals/atom
  scanning impropers ...
  4 = max impropers/atom
  reading bonds ...
  27723 bonds
  reading angles ...
  40467 angles
  reading dihedrals ...
  56829 dihedrals
  reading impropers ...
  1034 impropers
Finding 1-2 1-3 1-4 neighbors ...
  special bond factors lj:    0        0        0       
  special bond factors coul:  0        0        0       
     4 = max # of 1-2 neighbors
    12 = max # of 1-3 neighbors
    24 = max # of 1-4 neighbors
    26 = max # of special neighbors
  special bonds CPU = 0.034 seconds
  read_data CPU = 0.418 seconds
Replicating atoms ...
  orthogonal box = (-27.5 -38.5 -36.3646) to (192.5 269.5 254.5398)
  1 by 1 by 1 MPI processor grid
  2048000 atoms
  1774272 bonds
  2589888 angles
  3637056 dihedrals
  66176 impropers
Finding 1-2 1-3 1-4 neighbors ...
  special bond factors lj:    0        0        0       
  special bond factors coul:  0        0        0       
     4 = max # of 1-2 neighbors
    12 = max # of 1-3 neighbors
    24 = max # of 1-4 neighbors
    26 = max # of special neighbors
  special bonds CPU = 2.927 seconds
  replicate CPU = 6.785 seconds
Finding SHAKE clusters ...
  103488 = # of size 2 clusters
  232512 = # of size 3 clusters
   47808 = # of size 4 clusters
  270912 = # of frozen angles
  find clusters CPU = 1.423 seconds
PPPM initialization ...
  using 12-bit tables for long-range coulomb (../kspace.cpp:340)
  G vector (1/distance) = 0.24521748
  grid = 96 125 120
  stencil order = 5
  estimated absolute RMS force accuracy = 0.042505564
  estimated relative force accuracy = 0.00012800424
  using double precision cuFFT
  3d grid and FFT values/proc = 1641250 1440000
  generated 2278 of 2278 mixed pair_coeff terms from arithmetic mixing rule
Neighbor list info ...
  update every 1 steps, delay 5 steps, check yes
  max neighbors/atom: 2000, page size: 100000
  master list distance cutoff = 12
  ghost atom cutoff = 12
  binsize = 12, bins = 19 26 25
  1 neighbor lists, perpetual/occasional/extra = 1 0 0
  (1) pair lj/charmm/coul/long/kk, perpetual
      attributes: full, newton off, kokkos_device
      pair build: full/bin/kk/device
      stencil: full/bin/3d
      bin: kk/device
Setting up Verlet run ...
  Unit style    : real
  Current step  : 0
  Time step     : 2
WARNING: Fixes cannot yet send exchange data in Kokkos communication, switching to classic exchange/border communication (../comm_kokkos.cpp:581)
ERROR: Dihedral_style charmm/kk requires half neighbor list (../dihedral_charmm_kokkos.cpp:76)
Last command: run		100
srun: error: miller0806: task 0: Exited with exit code 1
srun: launch/slurm: _step_signal: Terminating StepId=67331606.32
