LAMMPS (17 Feb 2022)
KOKKOS mode is enabled (../kokkos.cpp:105)
  will use up to 1 GPU(s) per node
Lattice spacing in x,y,z = 1.6795962 1.6795962 1.6795962
Created orthogonal box = (0 0 0) to (134.3677 134.3677 134.3677)
  1 by 1 by 1 MPI processor grid
Created 2048000 atoms
  using lattice units in orthogonal box = (0 0 0) to (134.3677 134.3677 134.3677)
  create_atoms CPU = 1.085 seconds
  generated 0 of 0 mixed pair_coeff terms from geometric mixing rule
Neighbor list info ...
  update every 20 steps, delay 0 steps, check no
  max neighbors/atom: 2000, page size: 100000
  master list distance cutoff = 2.8
  ghost atom cutoff = 2.8
  binsize = 2.8, bins = 48 48 48
  1 neighbor lists, perpetual/occasional/extra = 1 0 0
  (1) pair lj/cut/kk, perpetual
      attributes: full, newton on, kokkos_device
      pair build: full/bin/kk/device
      stencil: full/bin/3d
      bin: kk/device
Setting up Verlet run ...
  Unit style    : lj
  Current step  : 0
  Time step     : 0.005
Per MPI rank memory allocation (min/avg/max) = 305.3 | 305.3 | 305.3 Mbytes
Step Temp E_pair E_mol TotEng Press 
       0         1.44   -6.7733681            0   -4.6133691   -5.0196699 
     100   0.75970574   -5.7618658            0   -4.6223078   0.18850941 
Loop time of 6.38645 on 1 procs for 100 steps with 2048000 atoms

Performance: 6764.316 tau/day, 15.658 timesteps/s
96.8% CPU use with 1 MPI tasks x 1 OpenMP threads

MPI task timing breakdown:
Section |  min time  |  avg time  |  max time  |%varavg| %total
---------------------------------------------------------------
Pair    | 0.4411     | 0.4411     | 0.4411     |   0.0 |  6.91
Neigh   | 0.11599    | 0.11599    | 0.11599    |   0.0 |  1.82
Comm    | 3.3709     | 3.3709     | 3.3709     |   0.0 | 52.78
Output  | 0.0055782  | 0.0055782  | 0.0055782  |   0.0 |  0.09
Modify  | 2.3879     | 2.3879     | 2.3879     |   0.0 | 37.39
Other   |            | 0.06499    |            |       |  1.02

Nlocal:      2.048e+06 ave   2.048e+06 max   2.048e+06 min
Histogram: 1 0 0 0 0 0 0 0 0 0
Nghost:         277315 ave      277315 max      277315 min
Histogram: 1 0 0 0 0 0 0 0 0 0
Neighs:              0 ave           0 max           0 min
Histogram: 1 0 0 0 0 0 0 0 0 0
FullNghs:  1.53821e+08 ave 1.53821e+08 max 1.53821e+08 min
Histogram: 1 0 0 0 0 0 0 0 0 0

Total # of neighbors = 1.5382101e+08
Ave neighs/atom = 75.107917
Neighbor list builds = 5
Dangerous builds not checked
Total wall time: 0:00:09
