LAMMPS (17 Feb 2022)
KOKKOS mode is enabled (../kokkos.cpp:105)
  will use up to 1 GPU(s) per node
Lattice spacing in x,y,z = 3.615 3.615 3.615
Created orthogonal box = (0 0 0) to (72.3 72.3 72.3)
  1 by 1 by 1 MPI processor grid
Created 32000 atoms
  using lattice units in orthogonal box = (0 0 0) to (72.3 72.3 72.3)
  create_atoms CPU = 0.019 seconds
Reading eam potential file Cu_u3.eam with DATE: 2007-06-11
Neighbor list info ...
  update every 1 steps, delay 5 steps, check yes
  max neighbors/atom: 2000, page size: 100000
  master list distance cutoff = 5.95
  ghost atom cutoff = 5.95
  binsize = 5.95, bins = 13 13 13
  1 neighbor lists, perpetual/occasional/extra = 1 0 0
  (1) pair eam/kk, perpetual
      attributes: half, newton on, kokkos_device
      pair build: half/bin/kk/device
      stencil: half/bin/3d
      bin: kk/device
Setting up Verlet run ...
  Unit style    : metal
  Current step  : 0
  Time step     : 0.005
Per MPI rank memory allocation (min/avg/max) = 9.821 | 9.821 | 9.821 Mbytes
Step Temp E_pair E_mol TotEng Press 
       0         1600      -113280            0   -106662.09    18703.573 
      50    784.81801   -109886.44            0   -106640.28    52090.601 
     100    796.06342   -109933.19            0   -106640.52    51540.284 
Loop time of 0.255778 on 1 procs for 100 steps with 32000 atoms

Performance: 168.897 ns/day, 0.142 hours/ns, 390.964 timesteps/s
100.1% CPU use with 1 MPI tasks x 1 OpenMP threads

MPI task timing breakdown:
Section |  min time  |  avg time  |  max time  |%varavg| %total
---------------------------------------------------------------
Pair    | 0.057036   | 0.057036   | 0.057036   |   0.0 | 22.30
Neigh   | 0.0078794  | 0.0078794  | 0.0078794  |   0.0 |  3.08
Comm    | 0.14173    | 0.14173    | 0.14173    |   0.0 | 55.41
Output  | 0.00044207 | 0.00044207 | 0.00044207 |   0.0 |  0.17
Modify  | 0.039072   | 0.039072   | 0.039072   |   0.0 | 15.28
Other   |            | 0.009621   |            |       |  3.76

Nlocal:          32000 ave       32000 max       32000 min
Histogram: 1 0 0 0 0 0 0 0 0 0
Nghost:          19911 ave       19911 max       19911 min
Histogram: 1 0 0 0 0 0 0 0 0 0
Neighs:    1.20683e+06 ave 1.20683e+06 max 1.20683e+06 min
Histogram: 1 0 0 0 0 0 0 0 0 0

Total # of neighbors = 1206828
Ave neighs/atom = 37.713375
Neighbor list builds = 13
Dangerous builds = 0
Total wall time: 0:00:00
