LAMMPS (17 Feb 2022)
KOKKOS mode is enabled (../kokkos.cpp:105)
  will use up to 1 GPU(s) per node
Lattice spacing in x,y,z = 3.615 3.615 3.615
Created orthogonal box = (0 0 0) to (578.4 578.4 578.4)
  1 by 1 by 1 MPI processor grid
Created 16384000 atoms
  using lattice units in orthogonal box = (0 0 0) to (578.4 578.4 578.4)
  create_atoms CPU = 4.183 seconds
Reading eam potential file Cu_u3.eam with DATE: 2007-06-11
Neighbor list info ...
  update every 1 steps, delay 5 steps, check yes
  max neighbors/atom: 2000, page size: 100000
  master list distance cutoff = 5.95
  ghost atom cutoff = 5.95
  binsize = 5.95, bins = 98 98 98
  1 neighbor lists, perpetual/occasional/extra = 1 0 0
  (1) pair eam/kk, perpetual
      attributes: half, newton on, kokkos_device
      pair build: half/bin/kk/device
      stencil: half/bin/3d
      bin: kk/device
Setting up Verlet run ...
  Unit style    : metal
  Current step  : 0
  Time step     : 0.005
Per MPI rank memory allocation (min/avg/max) = 3092 | 3092 | 3092 Mbytes
Step Temp E_pair E_mol TotEng Press 
       0         1600    -57999360            0    -54610883    18704.157 
      50    780.77927    -56253216            0    -54599683    52282.705 
     100    798.44137    -56290845            0    -54599907    51468.777 
Loop time of 129.478 on 1 procs for 100 steps with 16384000 atoms

Performance: 0.334 ns/day, 71.932 hours/ns, 0.772 timesteps/s
147.5% CPU use with 1 MPI tasks x 1 OpenMP threads

MPI task timing breakdown:
Section |  min time  |  avg time  |  max time  |%varavg| %total
---------------------------------------------------------------
Pair    | 12.869     | 12.869     | 12.869     |   0.0 |  9.94
Neigh   | 1.9325     | 1.9325     | 1.9325     |   0.0 |  1.49
Comm    | 38.038     | 38.038     | 38.038     |   0.0 | 29.38
Output  | 0.069859   | 0.069859   | 0.069859   |   0.0 |  0.05
Modify  | 74.737     | 74.737     | 74.737     |   0.0 | 57.72
Other   |            | 1.833      |            |       |  1.42

Nlocal:     1.6384e+07 ave  1.6384e+07 max  1.6384e+07 min
Histogram: 1 0 0 0 0 0 0 0 0 0
Nghost:    1.09881e+06 ave 1.09881e+06 max 1.09881e+06 min
Histogram: 1 0 0 0 0 0 0 0 0 0
Neighs:    6.18133e+08 ave 6.18133e+08 max 6.18133e+08 min
Histogram: 1 0 0 0 0 0 0 0 0 0

Total # of neighbors = 6.1813276e+08
Ave neighs/atom = 37.72783
Neighbor list builds = 16
Dangerous builds = 0
Total wall time: 0:02:22
