LAMMPS (17 Feb 2022)
KOKKOS mode is enabled (../kokkos.cpp:105)
  will use up to 1 GPU(s) per node
Lattice spacing in x,y,z = 1.6795962 1.6795962 1.6795962
Created orthogonal box = (0 0 0) to (268.73539 268.73539 268.73539)
  1 by 1 by 1 MPI processor grid
Created 16384000 atoms
  using lattice units in orthogonal box = (0 0 0) to (268.73539 268.73539 268.73539)
  create_atoms CPU = 8.654 seconds
  generated 0 of 0 mixed pair_coeff terms from geometric mixing rule
Neighbor list info ...
  update every 20 steps, delay 0 steps, check no
  max neighbors/atom: 2000, page size: 100000
  master list distance cutoff = 2.8
  ghost atom cutoff = 2.8
  binsize = 2.8, bins = 96 96 96
  1 neighbor lists, perpetual/occasional/extra = 1 0 0
  (1) pair lj/cut/kk, perpetual
      attributes: full, newton on, kokkos_device
      pair build: full/bin/kk/device
      stencil: full/bin/3d
      bin: kk/device
Setting up Verlet run ...
  Unit style    : lj
  Current step  : 0
  Time step     : 0.005
Per MPI rank memory allocation (min/avg/max) = 2286 | 2286 | 2286 Mbytes
Step Temp E_pair E_mol TotEng Press 
       0         1.44   -6.7733681            0   -4.6133682   -5.0196693 
     100   0.75931112   -5.7612817            0   -4.6223151   0.19103161 
Loop time of 35.6022 on 1 procs for 100 steps with 16384000 atoms

Performance: 1213.409 tau/day, 2.809 timesteps/s
96.2% CPU use with 1 MPI tasks x 1 OpenMP threads

MPI task timing breakdown:
Section |  min time  |  avg time  |  max time  |%varavg| %total
---------------------------------------------------------------
Pair    | 3.2152     | 3.2152     | 3.2152     |   0.0 |  9.03
Neigh   | 0.84122    | 0.84122    | 0.84122    |   0.0 |  2.36
Comm    | 10.471     | 10.471     | 10.471     |   0.0 | 29.41
Output  | 0.038384   | 0.038384   | 0.038384   |   0.0 |  0.11
Modify  | 20.413     | 20.413     | 20.413     |   0.0 | 57.34
Other   |            | 0.6237     |            |       |  1.75

Nlocal:     1.6384e+07 ave  1.6384e+07 max  1.6384e+07 min
Histogram: 1 0 0 0 0 0 0 0 0 0
Nghost:    1.08583e+06 ave 1.08583e+06 max 1.08583e+06 min
Histogram: 1 0 0 0 0 0 0 0 0 0
Neighs:              0 ave           0 max           0 min
Histogram: 1 0 0 0 0 0 0 0 0 0
FullNghs:  1.23057e+09 ave 1.23057e+09 max 1.23057e+09 min
Histogram: 1 0 0 0 0 0 0 0 0 0

Total # of neighbors = 1.2305742e+09
Ave neighs/atom = 75.108291
Neighbor list builds = 5
Dangerous builds not checked
Total wall time: 0:00:53
