LAMMPS (17 Feb 2022)
KOKKOS mode is enabled (../kokkos.cpp:105)
  will use up to 1 GPU(s) per node
Reading data file ...
  orthogonal box = (0 0 0) to (9.491065 9.491065 6.99123)
  1 by 1 by 1 MPI processor grid
  reading atoms ...
  58 atoms
  read_data CPU = 0.002 seconds
Replicating atoms ...
  orthogonal box = (0 0 0) to (303.71408 303.71408 223.71936)
  1 by 1 by 1 MPI processor grid
  1900544 atoms
  replicate CPU = 0.569 seconds
WARNING: Changed valency_val to valency_boc for X (../reaxff_ffield.cpp:296)

CITE-CITE-CITE-CITE-CITE-CITE-CITE-CITE-CITE-CITE-CITE-CITE-CITE

Your simulation uses code contributions which should be cited:
- pair reaxff command:
- fix qeq/reaxff command:
The log file lists these citations in BibTeX format.

CITE-CITE-CITE-CITE-CITE-CITE-CITE-CITE-CITE-CITE-CITE-CITE-CITE

Neighbor list info ...
  update every 1 steps, delay 10 steps, check yes
  max neighbors/atom: 2000, page size: 100000
  master list distance cutoff = 12
  ghost atom cutoff = 12
  binsize = 12, bins = 26 26 19
  2 neighbor lists, perpetual/occasional/extra = 2 0 0
  (1) pair reax/c/kk, perpetual
      attributes: half, newton off, ghost, kokkos_device
      pair build: half/bin/ghost/kk/device
      stencil: full/ghost/bin/3d
      bin: kk/device
  (2) fix qeq/reax/kk/host, perpetual
      attributes: full, newton off, ghost, kokkos_host
      pair build: full/bin/ghost/kk/host
      stencil: full/ghost/bin/3d
      bin: kk/host
Setting up Verlet run ...
  Unit style    : real
  Current step  : 0
  Time step     : 0.1
:0: : block: [134,0,0], thread: [0,32,0] Assertion `Kokkos::View ERROR: attempt to access inaccessible memory space` failed.
:0: : block: [134,0,0], thread: [0,33,0] Assertion `Kokkos::View ERROR: attempt to access inaccessible memory space` failed.
:0: : block: [134,0,0], thread: [0,34,0] Assertion `Kokkos::View ERROR: attempt to access inaccessible memory space` failed.
:0: : block: [134,0,0], thread: [0,35,0] Assertion `Kokkos::View ERROR: attempt to access inaccessible memory space` failed.
:0: : block: [134,0,0], thread: [0,36,0] Assertion `Kokkos::View ERROR: attempt to access inaccessible memory space` failed.
:0: : block: [134,0,0], thread: [0,37,0] Assertion `Kokkos::View ERROR: attempt to access inaccessible memory space` failed.
:0: : block: [134,0,0], thread: [0,38,0] Assertion `Kokkos::View ERROR: attempt to access inaccessible memory space` failed.
:0: : block: [134,0,0], thread: [0,39,0] Assertion `Kokkos::View ERROR: attempt to access inaccessible memory space` failed.
:0: : block: [134,0,0], thread: [0,40,0] Assertion `Kokkos::View ERROR: attempt to access inaccessible memory space` failed.
:0: : block: [134,0,0], thread: [0,41,0] Assertion `Kokkos::View ERROR: attempt to access inaccessible memory space` failed.
:0: : block: [134,0,0], thread: [0,42,0] Assertion `Kokkos::View ERROR: attempt to access inaccessible memory space` failed.
:0: : block: [134,0,0], thread: [0,43,0] Assertion `Kokkos::View ERROR: attempt to access inaccessible memory space` failed.
:0: : block: [134,0,0], thread: [0,44,0] Assertion `Kokkos::View ERROR: attempt to access inaccessible memory space` failed.
:0: : block: [134,0,0], thread: [0,45,0] Assertion `Kokkos::View ERROR: attempt to access inaccessible memory space` failed.
:0: : block: [134,0,0], thread: [0,46,0] Assertion `Kokkos::View ERROR: attempt to access inaccessible memory space` failed.
:0: : block: [134,0,0], thread: [0,47,0] Assertion `Kokkos::View ERROR: attempt to access inaccessible memory space` failed.
:0: : block: [134,0,0], thread: [0,48,0] Assertion `Kokkos::View ERROR: attempt to access inaccessible memory space` failed.
:0: : block: [134,0,0], thread: [0,49,0] Assertion `Kokkos::View ERROR: attempt to access inaccessible memory space` failed.
:0: : block: [134,0,0], thread: [0,50,0] Assertion `Kokkos::View ERROR: attempt to access inaccessible memory space` failed.
:0: : block: [134,0,0], thread: [0,51,0] Assertion `Kokkos::View ERROR: attempt to access inaccessible memory space` failed.
:0: : block: [134,0,0], thread: [0,52,0] Assertion `Kokkos::View ERROR: attempt to access inaccessible memory space` failed.
:0: : block: [134,0,0], thread: [0,53,0] Assertion `Kokkos::View ERROR: attempt to access inaccessible memory space` failed.
:0: : block: [134,0,0], thread: [0,54,0] Assertion `Kokkos::View ERROR: attempt to access inaccessible memory space` failed.
:0: : block: [134,0,0], thread: [0,55,0] Assertion `Kokkos::View ERROR: attempt to access inaccessible memory space` failed.
:0: : block: [134,0,0], thread: [0,56,0] Assertion `Kokkos::View ERROR: attempt to access inaccessible memory space` failed.
:0: : block: [134,0,0], thread: [0,57,0] Assertion `Kokkos::View ERROR: attempt to access inaccessible memory space` failed.
:0: : block: [134,0,0], thread: [0,58,0] Assertion `Kokkos::View ERROR: attempt to access inaccessible memory space` failed.
:0: : block: [134,0,0], thread: [0,59,0] Assertion `Kokkos::View ERROR: attempt to access inaccessible memory space` failed.
:0: : block: [134,0,0], thread: [0,60,0] Assertion `Kokkos::View ERROR: attempt to access inaccessible memory space` failed.
:0: : block: [134,0,0], thread: [0,61,0] Assertion `Kokkos::View ERROR: attempt to access inaccessible memory space` failed.
:0: : block: [134,0,0], thread: [0,62,0] Assertion `Kokkos::View ERROR: attempt to access inaccessible memory space` failed.
:0: : block: [134,0,0], thread: [0,63,0] Assertion `Kokkos::View ERROR: attempt to access inaccessible memory space` failed.
:0: : block: [134,0,0], thread: [0,0,0] Assertion `Kokkos::View ERROR: attempt to access inaccessible memory space` failed.
:0: : block: [134,0,0], thread: [0,1,0] Assertion `Kokkos::View ERROR: attempt to access inaccessible memory space` failed.
:0: : block: [134,0,0], thread: [0,2,0] Assertion `Kokkos::View ERROR: attempt to access inaccessible memory space` failed.
:0: : block: [134,0,0], thread: [0,3,0] Assertion `Kokkos::View ERROR: attempt to access inaccessible memory space` failed.
:0: : block: [134,0,0], thread: [0,4,0] Assertion `Kokkos::View ERROR: attempt to access inaccessible memory space` failed.
:0: : block: [134,0,0], thread: [0,5,0] Assertion `Kokkos::View ERROR: attempt to access inaccessible memory space` failed.
:0: : block: [134,0,0], thread: [0,6,0] Assertion `Kokkos::View ERROR: attempt to access inaccessible memory space` failed.
:0: : block: [134,0,0], thread: [0,7,0] Assertion `Kokkos::View ERROR: attempt to access inaccessible memory space` failed.
:0: : block: [134,0,0], thread: [0,8,0] Assertion `Kokkos::View ERROR: attempt to access inaccessible memory space` failed.
:0: : block: [134,0,0], thread: [0,9,0] Assertion `Kokkos::View ERROR: attempt to access inaccessible memory space` failed.
:0: : block: [134,0,0], thread: [0,10,0] Assertion `Kokkos::View ERROR: attempt to access inaccessible memory space` failed.
:0: : block: [134,0,0], thread: [0,11,0] Assertion `Kokkos::View ERROR: attempt to access inaccessible memory space` failed.
:0: : block: [134,0,0], thread: [0,12,0] Assertion `Kokkos::View ERROR: attempt to access inaccessible memory space` failed.
:0: : block: [134,0,0], thread: [0,13,0] Assertion `Kokkos::View ERROR: attempt to access inaccessible memory space` failed.
:0: : block: [134,0,0], thread: [0,14,0] Assertion `Kokkos::View ERROR: attempt to access inaccessible memory space` failed.
:0: : block: [134,0,0], thread: [0,15,0] Assertion `Kokkos::View ERROR: attempt to access inaccessible memory space` failed.
:0: : block: [134,0,0], thread: [0,16,0] Assertion `Kokkos::View ERROR: attempt to access inaccessible memory space` failed.
:0: : block: [134,0,0], thread: [0,17,0] Assertion `Kokkos::View ERROR: attempt to access inaccessible memory space` failed.
:0: : block: [134,0,0], thread: [0,18,0] Assertion `Kokkos::View ERROR: attempt to access inaccessible memory space` failed.
:0: : block: [134,0,0], thread: [0,19,0] Assertion `Kokkos::View ERROR: attempt to access inaccessible memory space` failed.
:0: : block: [134,0,0], thread: [0,20,0] Assertion `Kokkos::View ERROR: attempt to access inaccessible memory space` failed.
:0: : block: [134,0,0], thread: [0,21,0] Assertion `Kokkos::View ERROR: attempt to access inaccessible memory space` failed.
:0: : block: [134,0,0], thread: [0,22,0] Assertion `Kokkos::View ERROR: attempt to access inaccessible memory space` failed.
:0: : block: [134,0,0], thread: [0,23,0] Assertion `Kokkos::View ERROR: attempt to access inaccessible memory space` failed.
:0: : block: [134,0,0], thread: [0,24,0] Assertion `Kokkos::View ERROR: attempt to access inaccessible memory space` failed.
:0: : block: [134,0,0], thread: [0,25,0] Assertion `Kokkos::View ERROR: attempt to access inaccessible memory space` failed.
:0: : block: [134,0,0], thread: [0,26,0] Assertion `Kokkos::View ERROR: attempt to access inaccessible memory space` failed.
:0: : block: [134,0,0], thread: [0,27,0] Assertion `Kokkos::View ERROR: attempt to access inaccessible memory space` failed.
:0: : block: [134,0,0], thread: [0,28,0] Assertion `Kokkos::View ERROR: attempt to access inaccessible memory space` failed.
:0: : block: [134,0,0], thread: [0,29,0] Assertion `Kokkos::View ERROR: attempt to access inaccessible memory space` failed.
:0: : block: [134,0,0], thread: [0,30,0] Assertion `Kokkos::View ERROR: attempt to access inaccessible memory space` failed.
:0: : block: [134,0,0], thread: [0,31,0] Assertion `Kokkos::View ERROR: attempt to access inaccessible memory space` failed.
:0: : block: [134,0,0], thread: [0,64,0] Assertion `Kokkos::View ERROR: attempt to access inaccessible memory space` failed.
:0: : block: [134,0,0], thread: [0,65,0] Assertion `Kokkos::View ERROR: attempt to access inaccessible memory space` failed.
:0: : block: [134,0,0], thread: [0,66,0] Assertion `Kokkos::View ERROR: attempt to access inaccessible memory space` failed.
:0: : block: [134,0,0], thread: [0,67,0] Assertion `Kokkos::View ERROR: attempt to access inaccessible memory space` failed.
:0: : block: [134,0,0], thread: [0,68,0] Assertion `Kokkos::View ERROR: attempt to access inaccessible memory space` failed.
:0: : block: [134,0,0], thread: [0,69,0] Assertion `Kokkos::View ERROR: attempt to access inaccessible memory space` failed.
:0: : block: [134,0,0], thread: [0,70,0] Assertion `Kokkos::View ERROR: attempt to access inaccessible memory space` failed.
:0: : block: [134,0,0], thread: [0,71,0] Assertion `Kokkos::View ERROR: attempt to access inaccessible memory space` failed.
:0: : block: [134,0,0], thread: [0,72,0] Assertion `Kokkos::View ERROR: attempt to access inaccessible memory space` failed.
:0: : block: [134,0,0], thread: [0,73,0] Assertion `Kokkos::View ERROR: attempt to access inaccessible memory space` failed.
:0: : block: [134,0,0], thread: [0,74,0] Assertion `Kokkos::View ERROR: attempt to access inaccessible memory space` failed.
:0: : block: [134,0,0], thread: [0,75,0] Assertion `Kokkos::View ERROR: attempt to access inaccessible memory space` failed.
:0: : block: [134,0,0], thread: [0,76,0] Assertion `Kokkos::View ERROR: attempt to access inaccessible memory space` failed.
:0: : block: [134,0,0], thread: [0,77,0] Assertion `Kokkos::View ERROR: attempt to access inaccessible memory space` failed.
:0: : block: [134,0,0], thread: [0,78,0] Assertion `Kokkos::View ERROR: attempt to access inaccessible memory space` failed.
:0: : block: [134,0,0], thread: [0,79,0] Assertion `Kokkos::View ERROR: attempt to access inaccessible memory space` failed.
:0: : block: [134,0,0], thread: [0,80,0] Assertion `Kokkos::View ERROR: attempt to access inaccessible memory space` failed.
:0: : block: [134,0,0], thread: [0,81,0] Assertion `Kokkos::View ERROR: attempt to access inaccessible memory space` failed.
:0: : block: [134,0,0], thread: [0,82,0] Assertion `Kokkos::View ERROR: attempt to access inaccessible memory space` failed.
:0: : block: [134,0,0], thread: [0,83,0] Assertion `Kokkos::View ERROR: attempt to access inaccessible memory space` failed.
:0: : block: [134,0,0], thread: [0,84,0] Assertion `Kokkos::View ERROR: attempt to access inaccessible memory space` failed.
:0: : block: [134,0,0], thread: [0,85,0] Assertion `Kokkos::View ERROR: attempt to access inaccessible memory space` failed.
:0: : block: [134,0,0], thread: [0,86,0] Assertion `Kokkos::View ERROR: attempt to access inaccessible memory space` failed.
:0: : block: [134,0,0], thread: [0,87,0] Assertion `Kokkos::View ERROR: attempt to access inaccessible memory space` failed.
:0: : block: [134,0,0], thread: [0,88,0] Assertion `Kokkos::View ERROR: attempt to access inaccessible memory space` failed.
:0: : block: [134,0,0], thread: [0,89,0] Assertion `Kokkos::View ERROR: attempt to access inaccessible memory space` failed.
:0: : block: [134,0,0], thread: [0,90,0] Assertion `Kokkos::View ERROR: attempt to access inaccessible memory space` failed.
:0: : block: [134,0,0], thread: [0,91,0] Assertion `Kokkos::View ERROR: attempt to access inaccessible memory space` failed.
:0: : block: [134,0,0], thread: [0,92,0] Assertion `Kokkos::View ERROR: attempt to access inaccessible memory space` failed.
:0: : block: [134,0,0], thread: [0,93,0] Assertion `Kokkos::View ERROR: attempt to access inaccessible memory space` failed.
:0: : block: [134,0,0], thread: [0,94,0] Assertion `Kokkos::View ERROR: attempt to access inaccessible memory space` failed.
:0: : block: [134,0,0], thread: [0,95,0] Assertion `Kokkos::View ERROR: attempt to access inaccessible memory space` failed.
terminate called after throwing an instance of 'std::runtime_error'
  what():  cudaEventSynchronize(cuda_instance->constantMemReusable) error( cudaErrorAssert): device-side assert triggered ../../lib/kokkos/core/src/Cuda/Kokkos_Cuda_KernelLaunch.hpp:543
Traceback functionality not available

srun: error: miller0805: task 0: Aborted (core dumped)
srun: launch/slurm: _step_signal: Terminating StepId=67331604.133
