LAMMPS (17 Feb 2022)
KOKKOS mode is enabled (../kokkos.cpp:105)
  will use up to 1 GPU(s) per node
Reading data file ...
  orthogonal box = (0 0 0) to (9.491065 9.491065 6.99123)
  1 by 1 by 1 MPI processor grid
  reading atoms ...
  58 atoms
  read_data CPU = 0.264 seconds
Replicating atoms ...
  orthogonal box = (0 0 0) to (75.92852 75.92852 55.92984)
  1 by 1 by 1 MPI processor grid
  29696 atoms
  replicate CPU = 0.013 seconds
WARNING: Changed valency_val to valency_boc for X (../reaxff_ffield.cpp:296)

CITE-CITE-CITE-CITE-CITE-CITE-CITE-CITE-CITE-CITE-CITE-CITE-CITE

Your simulation uses code contributions which should be cited:
- pair reaxff command:
- fix qeq/reaxff command:
The log file lists these citations in BibTeX format.

CITE-CITE-CITE-CITE-CITE-CITE-CITE-CITE-CITE-CITE-CITE-CITE-CITE

Neighbor list info ...
  update every 1 steps, delay 10 steps, check yes
  max neighbors/atom: 2000, page size: 100000
  master list distance cutoff = 12
  ghost atom cutoff = 12
  binsize = 12, bins = 7 7 5
  2 neighbor lists, perpetual/occasional/extra = 2 0 0
  (1) pair reax/c/kk, perpetual
      attributes: half, newton off, ghost, kokkos_device
      pair build: half/bin/ghost/kk/device
      stencil: full/ghost/bin/3d
      bin: kk/device
  (2) fix qeq/reax/kk/host, perpetual
      attributes: full, newton off, ghost, kokkos_host
      pair build: full/bin/ghost/kk/host
      stencil: full/ghost/bin/3d
      bin: kk/host
Setting up Verlet run ...
  Unit style    : real
  Current step  : 0
  Time step     : 0.1
WARNING: Fixes cannot yet send exchange data in Kokkos communication, switching to classic exchange/border communication (../comm_kokkos.cpp:581)
Aborting with message `Kokkos::View ERROR: attempt to access inaccessible memory space'.
Aborting with message `Kokkos::View ERROR: attempt to access inaccessible memory space'.
Aborting with message `Kokkos::View ERROR: attempt to access inaccessible memory space'.
Aborting with message `Kokkos::View ERROR: attempt to access inaccessible memory space'.
Aborting with message `Kokkos::View ERROR: attempt to access inaccessible memory space'.
Aborting with message `Kokkos::View ERROR: attempt to access inaccessible memory space'.
Aborting with message `Kokkos::View ERROR: attempt to access inaccessible memory space'.
Aborting with message `Kokkos::View ERROR: attempt to access inaccessible memory space'.
Aborting with message `Kokkos::View ERROR: attempt to access inaccessible memory space'.
Aborting with message `Kokkos::View ERROR: attempt to access inaccessible memory space'.
Aborting with message `Kokkos::View ERROR: attempt to access inaccessible memory space'.
Aborting with message `Kokkos::View ERROR: attempt to access inaccessible memory space'.
Aborting with message `Kokkos::View ERROR: attempt to access inaccessible memory space'.
Aborting with message `Kokkos::View ERROR: attempt to access inaccessible memory space'.
Aborting with message `Kokkos::View ERROR: attempt to access inaccessible memory space'.
Aborting with message `Kokkos::View ERROR: attempt to access inaccessible memory space'.
Aborting with message `Kokkos::View ERROR: attempt to access inaccessible memory space'.
Aborting with message `Kokkos::View ERROR: attempt to access inaccessible memory space'.
Aborting with message `Kokkos::View ERROR: attempt to access inaccessible memory space'.
Aborting with message `Kokkos::View ERROR: attempt to access inaccessible memory space'.
Aborting with message `Kokkos::View ERROR: attempt to access inaccessible memory space'.
Aborting with message `Kokkos::View ERROR: attempt to access inaccessible memory space'.
Aborting with message `Kokkos::View ERROR: attempt to access inaccessible memory space'.
Aborting with message `Kokkos::View ERROR: attempt to access inaccessible memory space'.
Aborting with message `Kokkos::View ERROR: attempt to access inaccessible memory space'.
Aborting with message `Kokkos::View ERROR: attempt to access inaccessible memory space'.
Aborting with message `Kokkos::View ERROR: attempt to access inaccessible memory space'.
:0:rocdevice.cpp            :2589: 1396545561738 us: Device::callbackQueue aborting with error : HSA_STATUS_ERROR_EXCEPTION: An HSAIL operation resulted in a hardware exception. code: 0x1016
Aborting wsrun: error: spock08: task 0: Aborted (core dumped)
srun: launch/slurm: _step_signal: Terminating StepId=426068.160
