LAMMPS (17 Feb 2022)
KOKKOS mode is enabled (../kokkos.cpp:105)
  will use up to 1 GPU(s) per node
Reading data file ...
  orthogonal box = (0 0 0) to (9.491065 9.491065 6.99123)
  1 by 1 by 1 MPI processor grid
  reading atoms ...
  58 atoms
  read_data CPU = 0.004 seconds
Replicating atoms ...
  orthogonal box = (0 0 0) to (151.85704 151.85704 111.85968)
  1 by 1 by 1 MPI processor grid
  237568 atoms
  replicate CPU = 0.123 seconds
WARNING: Changed valency_val to valency_boc for X (../reaxff_ffield.cpp:296)

CITE-CITE-CITE-CITE-CITE-CITE-CITE-CITE-CITE-CITE-CITE-CITE-CITE

Your simulation uses code contributions which should be cited:
- pair reaxff command:
- fix qeq/reaxff command:
The log file lists these citations in BibTeX format.

CITE-CITE-CITE-CITE-CITE-CITE-CITE-CITE-CITE-CITE-CITE-CITE-CITE

Neighbor list info ...
  update every 1 steps, delay 10 steps, check yes
  max neighbors/atom: 2000, page size: 100000
  master list distance cutoff = 12
  ghost atom cutoff = 12
  binsize = 12, bins = 13 13 10
  2 neighbor lists, perpetual/occasional/extra = 2 0 0
  (1) pair reax/c/kk, perpetual
      attributes: half, newton off, ghost, kokkos_device
      pair build: half/bin/ghost/kk/device
      stencil: full/ghost/bin/3d
      bin: kk/device
  (2) fix qeq/reax/kk/host, perpetual
      attributes: full, newton off, ghost, kokkos_host
      pair build: full/bin/ghost/kk/host
      stencil: full/ghost/bin/3d
      bin: kk/host
Setting up Verlet run ...
  Unit style    : real
  Current step  : 0
  Time step     : 0.1
WARNING: Fixes cannot yet send exchange data in Kokkos communication, switching to classic exchange/border communication (../comm_kokkos.cpp:581)
:0: : block: [90,0,0], thread: [0,96,0] Assertion `Kokkos::View ERROR: attempt to access inaccessible memory space` failed.
:0: : block: [90,0,0], thread: [0,97,0] Assertion `Kokkos::View ERROR: attempt to access inaccessible memory space` failed.
:0: : block: [90,0,0], thread: [0,98,0] Assertion `Kokkos::View ERROR: attempt to access inaccessible memory space` failed.
:0: : block: [90,0,0], thread: [0,99,0] Assertion `Kokkos::View ERROR: attempt to access inaccessible memory space` failed.
:0: : block: [90,0,0], thread: [0,100,0] Assertion `Kokkos::View ERROR: attempt to access inaccessible memory space` failed.
:0: : block: [90,0,0], thread: [0,101,0] Assertion `Kokkos::View ERROR: attempt to access inaccessible memory space` failed.
:0: : block: [90,0,0], thread: [0,102,0] Assertion `Kokkos::View ERROR: attempt to access inaccessible memory space` failed.
:0: : block: [90,0,0], thread: [0,103,0] Assertion `Kokkos::View ERROR: attempt to access inaccessible memory space` failed.
:0: : block: [90,0,0], thread: [0,104,0] Assertion `Kokkos::View ERROR: attempt to access inaccessible memory space` failed.
:0: : block: [90,0,0], thread: [0,105,0] Assertion `Kokkos::View ERROR: attempt to access inaccessible memory space` failed.
:0: : block: [90,0,0], thread: [0,106,0] Assertion `Kokkos::View ERROR: attempt to access inaccessible memory space` failed.
:0: : block: [90,0,0], thread: [0,107,0] Assertion `Kokkos::View ERROR: attempt to access inaccessible memory space` failed.
:0: : block: [90,0,0], thread: [0,108,0] Assertion `Kokkos::View ERROR: attempt to access inaccessible memory space` failed.
:0: : block: [90,0,0], thread: [0,109,0] Assertion `Kokkos::View ERROR: attempt to access inaccessible memory space` failed.
:0: : block: [90,0,0], thread: [0,110,0] Assertion `Kokkos::View ERROR: attempt to access inaccessible memory space` failed.
:0: : block: [90,0,0], thread: [0,111,0] Assertion `Kokkos::View ERROR: attempt to access inaccessible memory space` failed.
:0: : block: [90,0,0], thread: [0,112,0] Assertion `Kokkos::View ERROR: attempt to access inaccessible memory space` failed.
:0: : block: [90,0,0], thread: [0,113,0] Assertion `Kokkos::View ERROR: attempt to access inaccessible memory space` failed.
:0: : block: [90,0,0], thread: [0,114,0] Assertion `Kokkos::View ERROR: attempt to access inaccessible memory space` failed.
:0: : block: [90,0,0], thread: [0,115,0] Assertion `Kokkos::View ERROR: attempt to access inaccessible memory space` failed.
:0: : block: [90,0,0], thread: [0,116,0] Assertion `Kokkos::View ERROR: attempt to access inaccessible memory space` failed.
:0: : block: [90,0,0], thread: [0,117,0] Assertion `Kokkos::View ERROR: attempt to access inaccessible memory space` failed.
:0: : block: [90,0,0], thread: [0,118,0] Assertion `Kokkos::View ERROR: attempt to access inaccessible memory space` failed.
:0: : block: [90,0,0], thread: [0,119,0] Assertion `Kokkos::View ERROR: attempt to access inaccessible memory space` failed.
:0: : block: [90,0,0], thread: [0,120,0] Assertion `Kokkos::View ERROR: attempt to access inaccessible memory space` failed.
:0: : block: [90,0,0], thread: [0,121,0] Assertion `Kokkos::View ERROR: attempt to access inaccessible memory space` failed.
:0: : block: [90,0,0], thread: [0,122,0] Assertion `Kokkos::View ERROR: attempt to access inaccessible memory space` failed.
:0: : block: [90,0,0], thread: [0,123,0] Assertion `Kokkos::View ERROR: attempt to access inaccessible memory space` failed.
:0: : block: [90,0,0], thread: [0,124,0] Assertion `Kokkos::View ERROR: attempt to access inaccessible memory space` failed.
:0: : block: [90,0,0], thread: [0,125,0] Assertion `Kokkos::View ERROR: attempt to access inaccessible memory space` failed.
:0: : block: [90,0,0], thread: [0,126,0] Assertion `Kokkos::View ERROR: attempt to access inaccessible memory space` failed.
:0: : block: [90,0,0], thread: [0,127,0] Assertion `Kokkos::View ERROR: attempt to access inaccessible memory space` failed.
terminate called after throwing an instance of 'std::runtime_error'
  what():  cudaEventSynchronize(cuda_instance->constantMemReusable) error( cudaErrorAssert): device-side assert triggered ../../lib/kokkos/core/src/Cuda/Kokkos_Cuda_KernelLaunch.hpp:544
Traceback functionality not available

[h29n08:2919350] *** Process received signal ***
[h29n08:2919350] Signal: Aborted (6)
[h29n08:2919350] Signal code:  (-6)
[h29n08:2919350] [ 0] linux-vdso64.so.1(__kernel_sigtramp_rt64+0x0)[0x2000000504d8]
[h29n08:2919350] [ 1] /lib64/power9/libc.so.6(gsignal+0xd8)[0x20000b983618]
[h29n08:2919350] [ 2] /lib64/power9/libc.so.6(abort+0x164)[0x20000b963a2c]
[h29n08:2919350] [ 3] /lib64/libstdc++.so.6(_ZN9__gnu_cxx27__verbose_terminate_handlerEv+0x158)[0x20000b654a98]
[h29n08:2919350] [ 4] /lib64/libstdc++.so.6(+0xaf6d4)[0x20000b64f6d4]
[h29n08:2919350] [ 5] /lib64/libstdc++.so.6(_ZSt9terminatev+0x20)[0x20000b64f790]
[h29n08:2919350] [ 6] /lib64/libstdc++.so.6(__cxa_throw+0x7c)[0x20000b64fc6c]
[h29n08:2919350] [ 7] /gpfs/alpine/proj-shared/stf016/hagertnl/CUG22/lammps_tests/reax/dir_pair-only_on_gpu-aware_off_comm_host_newton_on_neigh-thread_off_neigh_half_neigh-qeq_full/../../lammps/bin/lmp_summit[0x11a78cfc]
[h29n08:2919350] [ 8] /gpfs/alpine/proj-shared/stf016/hagertnl/CUG22/lammps_tests/reax/dir_pair-only_on_gpu-aware_off_comm_host_newton_on_neigh-thread_off_neigh_half_neigh-qeq_full/../../lammps/bin/lmp_summit[0x11a7b694]
[h29n08:2919350] [ 9] /gpfs/alpine/proj-shared/stf016/hagertnl/CUG22/lammps_tests/reax/dir_pair-only_on_gpu-aware_off_comm_host_newton_on_neigh-thread_off_neigh_half_neigh-qeq_full/../../lammps/bin/lmp_summit[0x118e2db8]
[h29n08:2919350] [10] /gpfs/alpine/proj-shared/stf016/hagertnl/CUG22/lammps_tests/reax/dir_pair-only_on_gpu-aware_off_comm_host_newton_on_neigh-thread_off_neigh_half_neigh-qeq_full/../../lammps/bin/lmp_summit[0x118f87d8]
[h29n08:2919350] [11] /gpfs/alpine/proj-shared/stf016/hagertnl/CUG22/lammps_tests/reax/dir_pair-only_on_gpu-aware_off_comm_host_newton_on_neigh-thread_off_neigh_half_neigh-qeq_full/../../lammps/bin/lmp_summit[0x118ba148]
[h29n08:2919350] [12] /gpfs/alpine/proj-shared/stf016/hagertnl/CUG22/lammps_tests/reax/dir_pair-only_on_gpu-aware_off_comm_host_newton_on_neigh-thread_off_neigh_half_neigh-qeq_full/../../lammps/bin/lmp_summit[0x10570168]
[h29n08:2919350] [13] /gpfs/alpine/proj-shared/stf016/hagertnl/CUG22/lammps_tests/reax/dir_pair-only_on_gpu-aware_off_comm_host_newton_on_neigh-thread_off_neigh_half_neigh-qeq_full/../../lammps/bin/lmp_summit[0x11989438]
[h29n08:2919350] [14] /gpfs/alpine/proj-shared/stf016/hagertnl/CUG22/lammps_tests/reax/dir_pair-only_on_gpu-aware_off_comm_host_newton_on_neigh-thread_off_neigh_half_neigh-qeq_full/../../lammps/bin/lmp_summit[0x106fe51c]
[h29n08:2919350] [15] /gpfs/alpine/proj-shared/stf016/hagertnl/CUG22/lammps_tests/reax/dir_pair-only_on_gpu-aware_off_comm_host_newton_on_neigh-thread_off_neigh_half_neigh-qeq_full/../../lammps/bin/lmp_summit[0x10083aa0]
[h29n08:2919350] [16] /gpfs/alpine/proj-shared/stf016/hagertnl/CUG22/lammps_tests/reax/dir_pair-only_on_gpu-aware_off_comm_host_newton_on_neigh-thread_off_neigh_half_neigh-qeq_full/../../lammps/bin/lmp_summit[0x10084150]
[h29n08:2919350] [17] /gpfs/alpine/proj-shared/stf016/hagertnl/CUG22/lammps_tests/reax/dir_pair-only_on_gpu-aware_off_comm_host_newton_on_neigh-thread_off_neigh_half_neigh-qeq_full/../../lammps/bin/lmp_summit[0x100179fc]
[h29n08:2919350] [18] /lib64/power9/libc.so.6(+0x24078)[0x20000b964078]
[h29n08:2919350] [19] /lib64/power9/libc.so.6(__libc_start_main+0xb4)[0x20000b964264]
[h29n08:2919350] *** End of error message ***
ERROR:  One or more process (first noticed rank 0) terminated with signal 6 (core dumped)
