LAMMPS (17 Feb 2022)
KOKKOS mode is enabled (../kokkos.cpp:105)
  will use up to 1 GPU(s) per node
Lattice spacing in x,y,z = 3.615 3.615 3.615
Created orthogonal box = (0 0 0) to (144.6 144.6 144.6)
  1 by 1 by 1 MPI processor grid
Created 256000 atoms
  using lattice units in orthogonal box = (0 0 0) to (144.6 144.6 144.6)
  create_atoms CPU = 0.140 seconds
Reading eam potential file Cu_u3.eam with DATE: 2007-06-11
Neighbor list info ...
  update every 1 steps, delay 5 steps, check yes
  max neighbors/atom: 2000, page size: 100000
  master list distance cutoff = 5.95
  ghost atom cutoff = 5.95
  binsize = 5.95, bins = 25 25 25
  1 neighbor lists, perpetual/occasional/extra = 1 0 0
  (1) pair eam/kk, perpetual
      attributes: full, newton off, kokkos_device
      pair build: full/bin/kk/device
      stencil: full/bin/3d
      bin: kk/device
Setting up Verlet run ...
  Unit style    : metal
  Current step  : 0
  Time step     : 0.005
Per MPI rank memory allocation (min/avg/max) = 59.28 | 59.28 | 59.28 Mbytes
Step Temp E_pair E_mol TotEng Press 
       0         1600      -906240            0   -853295.25    18704.085 
      50    780.87746   -878959.88            0   -853120.28    52273.992 
     100    800.58622   -879616.44            0   -853124.67    51381.906 
Loop time of 0.506761 on 1 procs for 100 steps with 256000 atoms

Performance: 85.247 ns/day, 0.282 hours/ns, 197.332 timesteps/s
92.8% CPU use with 1 MPI tasks x 1 OpenMP threads

MPI task timing breakdown:
Section |  min time  |  avg time  |  max time  |%varavg| %total
---------------------------------------------------------------
Pair    | 0.16786    | 0.16786    | 0.16786    |   0.0 | 33.12
Neigh   | 0.04569    | 0.04569    | 0.04569    |   0.0 |  9.02
Comm    | 0.13578    | 0.13578    | 0.13578    |   0.0 | 26.79
Output  | 0.00029854 | 0.00029854 | 0.00029854 |   0.0 |  0.06
Modify  | 0.10982    | 0.10982    | 0.10982    |   0.0 | 21.67
Other   |            | 0.04731    |            |       |  9.34

Nlocal:         256000 ave      256000 max      256000 min
Histogram: 1 0 0 0 0 0 0 0 0 0
Nghost:          73249 ave       73249 max       73249 min
Histogram: 1 0 0 0 0 0 0 0 0 0
Neighs:              0 ave           0 max           0 min
Histogram: 1 0 0 0 0 0 0 0 0 0
FullNghs:  1.93145e+07 ave 1.93145e+07 max 1.93145e+07 min
Histogram: 1 0 0 0 0 0 0 0 0 0

Total # of neighbors = 19314496
Ave neighs/atom = 75.44725
Neighbor list builds = 14
Dangerous builds = 0
Total wall time: 0:00:01
