LAMMPS (17 Feb 2022)
KOKKOS mode is enabled (../kokkos.cpp:105)
  will use up to 1 GPU(s) per node
Lattice spacing in x,y,z = 3.615 3.615 3.615
Created orthogonal box = (0 0 0) to (289.2 289.2 289.2)
  1 by 1 by 1 MPI processor grid
Created 2048000 atoms
  using lattice units in orthogonal box = (0 0 0) to (289.2 289.2 289.2)
  create_atoms CPU = 1.092 seconds
Reading eam potential file Cu_u3.eam with DATE: 2007-06-11
Neighbor list info ...
  update every 1 steps, delay 5 steps, check yes
  max neighbors/atom: 2000, page size: 100000
  master list distance cutoff = 5.95
  ghost atom cutoff = 5.95
  binsize = 5.95, bins = 49 49 49
  1 neighbor lists, perpetual/occasional/extra = 1 0 0
  (1) pair eam/kk, perpetual
      attributes: full, newton off, kokkos_device
      pair build: full/bin/kk/device
      stencil: full/bin/3d
      bin: kk/device
Setting up Verlet run ...
  Unit style    : metal
  Current step  : 0
  Time step     : 0.005
Per MPI rank memory allocation (min/avg/max) = 412 | 412 | 412 Mbytes
Step Temp E_pair E_mol TotEng Press 
       0         1600     -7249920            0   -6826360.6    18704.149 
      50    780.58118   -7031598.1            0     -6824959    52293.023 
     100    798.58236   -7036392.2            0   -6824987.8    51462.767 
Loop time of 3.79752 on 1 procs for 100 steps with 2048000 atoms

Performance: 11.376 ns/day, 2.110 hours/ns, 26.333 timesteps/s
89.1% CPU use with 1 MPI tasks x 1 OpenMP threads

MPI task timing breakdown:
Section |  min time  |  avg time  |  max time  |%varavg| %total
---------------------------------------------------------------
Pair    | 1.2217     | 1.2217     | 1.2217     |   0.0 | 32.17
Neigh   | 0.36769    | 0.36769    | 0.36769    |   0.0 |  9.68
Comm    | 1.0818     | 1.0818     | 1.0818     |   0.0 | 28.49
Output  | 0.00059259 | 0.00059259 | 0.00059259 |   0.0 |  0.02
Modify  | 0.75778    | 0.75778    | 0.75778    |   0.0 | 19.95
Other   |            | 0.368      |            |       |  9.69

Nlocal:      2.048e+06 ave   2.048e+06 max   2.048e+06 min
Histogram: 1 0 0 0 0 0 0 0 0 0
Nghost:         280715 ave      280715 max      280715 min
Histogram: 1 0 0 0 0 0 0 0 0 0
Neighs:              0 ave           0 max           0 min
Histogram: 1 0 0 0 0 0 0 0 0 0
FullNghs:  1.54529e+08 ave 1.54529e+08 max 1.54529e+08 min
Histogram: 1 0 0 0 0 0 0 0 0 0

Total # of neighbors = 1.5452861e+08
Ave neighs/atom = 75.453421
Neighbor list builds = 15
Dangerous builds = 0
Total wall time: 0:00:07
