LAMMPS (17 Feb 2022)
KOKKOS mode is enabled (../kokkos.cpp:105)
  will use up to 1 GPU(s) per node
Reading data file ...
  orthogonal box = (0 0 0) to (9.491065 9.491065 6.99123)
  1 by 1 by 1 MPI processor grid
  reading atoms ...
  58 atoms
  read_data CPU = 0.004 seconds
Replicating atoms ...
  orthogonal box = (0 0 0) to (75.92852 75.92852 55.92984)
  1 by 1 by 1 MPI processor grid
  29696 atoms
  replicate CPU = 0.019 seconds
WARNING: Changed valency_val to valency_boc for X (../reaxff_ffield.cpp:296)

CITE-CITE-CITE-CITE-CITE-CITE-CITE-CITE-CITE-CITE-CITE-CITE-CITE

Your simulation uses code contributions which should be cited:
- pair reaxff command:
- fix qeq/reaxff command:
The log file lists these citations in BibTeX format.

CITE-CITE-CITE-CITE-CITE-CITE-CITE-CITE-CITE-CITE-CITE-CITE-CITE

Neighbor list info ...
  update every 1 steps, delay 10 steps, check yes
  max neighbors/atom: 2000, page size: 100000
  master list distance cutoff = 12
  ghost atom cutoff = 12
  binsize = 12, bins = 7 7 5
  2 neighbor lists, perpetual/occasional/extra = 2 0 0
  (1) pair reax/c/kk, perpetual, half/full from (2)
      attributes: half, newton off, ghost, kokkos_device
      pair build: halffull/newtoff/ghost/kk/device
      stencil: none
      bin: none
  (2) fix qeq/reax/kk, perpetual
      attributes: full, newton off, ghost, kokkos_device
      pair build: full/bin/ghost/kk/device
      stencil: full/ghost/bin/3d
      bin: kk/device
Setting up Verlet run ...
  Unit style    : real
  Current step  : 0
  Time step     : 0.1
WARNING: Fixes cannot yet send exchange data in Kokkos communication, switching to classic exchange/border communication (../comm_kokkos.cpp:581)
Per MPI rank memory allocation (min/avg/max) = 612.7 | 612.7 | 612.7 Mbytes
Step Temp KinEng PotEng Pxx Pyy Pzz TotEng 
       0          300    26554.546   -2955100.1    22804.303   -29366.465    6303.9788   -2928545.6 
     100    280.41484    24820.963   -2953414.9   -1268.4869    -8060.803   -1577.9356   -2928593.9 
Loop time of 3.91257 on 1 procs for 100 steps with 29696 atoms

Performance: 0.221 ns/day, 108.682 hours/ns, 25.559 timesteps/s
78.1% CPU use with 1 MPI tasks x 1 OpenMP threads

MPI task timing breakdown:
Section |  min time  |  avg time  |  max time  |%varavg| %total
---------------------------------------------------------------
Pair    | 1.8809     | 1.8809     | 1.8809     |   0.0 | 48.07
Neigh   | 0          | 0          | 0          |   0.0 |  0.00
Comm    | 0.14063    | 0.14063    | 0.14063    |   0.0 |  3.59
Output  | 0.00015548 | 0.00015548 | 0.00015548 |   0.0 |  0.00
Modify  | 1.885      | 1.885      | 1.885      |   0.0 | 48.18
Other   |            | 0.005815   |            |       |  0.15

Nlocal:          29696 ave       29696 max       29696 min
Histogram: 1 0 0 0 0 0 0 0 0 0
Nghost:          43291 ave       43291 max       43291 min
Histogram: 1 0 0 0 0 0 0 0 0 0
Neighs:    1.17513e+07 ave 1.17513e+07 max 1.17513e+07 min
Histogram: 1 0 0 0 0 0 0 0 0 0
FullNghs:  1.97847e+07 ave 1.97847e+07 max 1.97847e+07 min
Histogram: 1 0 0 0 0 0 0 0 0 0

Total # of neighbors = 19784704
Ave neighs/atom = 666.24138
Neighbor list builds = 0
Dangerous builds = 0
Total wall time: 0:00:05
