LAMMPS (17 Feb 2022)
KOKKOS mode is enabled (../kokkos.cpp:105)
  will use up to 1 GPU(s) per node
Reading data file ...
  orthogonal box = (0.11598334 0.11598334 0.11598334) to (76.884017 76.884017 76.884017)
  1 by 1 by 1 MPI processor grid
WARNING: Pair style in data file differs from currently defined pair style (../read_data.cpp:613)
  reading atoms ...
  45000 atoms
  reading velocities ...
  45000 velocities
  scanning bonds ...
  1 = max bonds/atom
  scanning angles ...
  1 = max angles/atom
  reading bonds ...
  30000 bonds
  reading angles ...
  15000 angles
Finding 1-2 1-3 1-4 neighbors ...
  special bond factors lj:    0        0        0       
  special bond factors coul:  0        0        0       
     2 = max # of 1-2 neighbors
     1 = max # of 1-3 neighbors
     1 = max # of 1-4 neighbors
     2 = max # of special neighbors
  special bonds CPU = 0.009 seconds
  read_data CPU = 0.248 seconds
Replicating atoms ...
  orthogonal box = (0.11598334 0.11598334 0.11598334) to (153.65205 153.65205 153.65205)
  1 by 1 by 1 MPI processor grid
  360000 atoms
  240000 bonds
  120000 angles
Finding 1-2 1-3 1-4 neighbors ...
  special bond factors lj:    0        0        0       
  special bond factors coul:  0        0        0       
     2 = max # of 1-2 neighbors
     1 = max # of 1-3 neighbors
     1 = max # of 1-4 neighbors
     2 = max # of special neighbors
  special bonds CPU = 0.068 seconds
  replicate CPU = 0.527 seconds
PPPM initialization ...
  using 12-bit tables for long-range coulomb (../kspace.cpp:340)
  G vector (1/distance) = 0.23076479
  grid = 96 96 96
  stencil order = 5
  estimated absolute RMS force accuracy = 0.0035267981
  estimated relative force accuracy = 1.0620848e-05
  using double precision cuFFT
  3d grid and FFT values/proc = 1092727 884736
ERROR: Cannot use the cuFFT library with Kokkos CUDA on the host CPUs (../fft3d_kokkos.cpp:55)
Last command: run 100
srun: error: miller0808: task 0: Exited with exit code 1
srun: launch/slurm: _step_signal: Terminating StepId=67331608.146
