LAMMPS (17 Feb 2022)
KOKKOS mode is enabled (../kokkos.cpp:105)
  will use up to 1 GPU(s) per node
Reading data file ...
  orthogonal box = (-27.5 -38.5 -36.3646) to (27.5 38.5 36.3615)
  1 by 1 by 1 MPI processor grid
  reading atoms ...
  32000 atoms
  reading velocities ...
  32000 velocities
  scanning bonds ...
  4 = max bonds/atom
  scanning angles ...
  18 = max angles/atom
  scanning dihedrals ...
  40 = max dihedrals/atom
  scanning impropers ...
  4 = max impropers/atom
  reading bonds ...
  27723 bonds
  reading angles ...
  40467 angles
  reading dihedrals ...
  56829 dihedrals
  reading impropers ...
  1034 impropers
Finding 1-2 1-3 1-4 neighbors ...
  special bond factors lj:    0        0        0       
  special bond factors coul:  0        0        0       
     4 = max # of 1-2 neighbors
    12 = max # of 1-3 neighbors
    24 = max # of 1-4 neighbors
    26 = max # of special neighbors
  special bonds CPU = 0.034 seconds
  read_data CPU = 0.397 seconds
Replicating atoms ...
  orthogonal box = (-27.5 -38.5 -36.3646) to (82.5 115.5 109.0876)
  1 by 1 by 1 MPI processor grid
  256000 atoms
  221784 bonds
  323736 angles
  454632 dihedrals
  8272 impropers
Finding 1-2 1-3 1-4 neighbors ...
  special bond factors lj:    0        0        0       
  special bond factors coul:  0        0        0       
     4 = max # of 1-2 neighbors
    12 = max # of 1-3 neighbors
    24 = max # of 1-4 neighbors
    26 = max # of special neighbors
  special bonds CPU = 0.288 seconds
  replicate CPU = 0.754 seconds
Finding SHAKE clusters ...
   12936 = # of size 2 clusters
   29064 = # of size 3 clusters
    5976 = # of size 4 clusters
   33864 = # of frozen angles
  find clusters CPU = 0.120 seconds
PPPM initialization ...
  using 12-bit tables for long-range coulomb (../kspace.cpp:340)
  G vector (1/distance) = 0.24587501
  grid = 48 64 60
  stencil order = 5
  estimated absolute RMS force accuracy = 0.041154918
  estimated relative force accuracy = 0.00012393681
  using double precision cuFFT
  3d grid and FFT values/proc = 237705 184320
  generated 2278 of 2278 mixed pair_coeff terms from arithmetic mixing rule
Neighbor list info ...
  update every 1 steps, delay 5 steps, check yes
  max neighbors/atom: 2000, page size: 100000
  master list distance cutoff = 12
  ghost atom cutoff = 12
  binsize = 12, bins = 10 13 13
  1 neighbor lists, perpetual/occasional/extra = 1 0 0
  (1) pair lj/charmm/coul/long/kk, perpetual
      attributes: half, newton off, kokkos_device
      pair build: half/bin/kk/device
      stencil: full/bin/3d
      bin: kk/device
Setting up Verlet run ...
  Unit style    : real
  Current step  : 0
  Time step     : 2
WARNING: Fixes cannot yet send exchange data in Kokkos communication, switching to classic exchange/border communication (../comm_kokkos.cpp:581)
Per MPI rank memory allocation (min/avg/max) = 733.8 | 733.8 | 733.8 Mbytes
---------------- Step        0 ----- CPU =      0.0000 (sec) ----------------
TotEng   =   -202846.5845 KinEng   =    171558.6503 Temp     =       299.0288 
PotEng   =   -374405.2348 E_bond   =     20303.9521 E_angle  =     87370.9937 
E_dihed  =     41694.2920 E_impro  =      1708.0927 E_vdwl   =    -18462.9073 
E_coul   =   1630560.2503 E_long   =  -2137579.9081 Press    =      -148.7724 
Volume   =   2463960.2680 
---------------- Step       50 ----- CPU =      1.6211 (sec) ----------------
TotEng   =   -202633.3097 KinEng   =    172010.7455 Temp     =       299.8168 
PotEng   =   -374644.0552 E_bond   =     19774.3522 E_angle  =     86693.5128 
E_dihed  =     41917.8118 E_impro  =      1817.0673 E_vdwl   =    -15943.3562 
E_coul   =   1628731.1899 E_long   =  -2137634.6329 Press    =       238.5807 
Volume   =   2464254.6246 
---------------- Step      100 ----- CPU =      3.3631 (sec) ----------------
TotEng   =   -202314.9831 KinEng   =    172724.3971 Temp     =       301.0607 
PotEng   =   -375039.3802 E_bond   =     20545.2148 E_angle  =     86257.3238 
E_dihed  =     41587.6716 E_impro  =      1733.5573 E_vdwl   =    -15187.7391 
E_coul   =   1627614.2836 E_long   =  -2137589.6922 Press    =        10.9237 
Volume   =   2465078.7363 
Loop time of 3.36316 on 1 procs for 100 steps with 256000 atoms

Performance: 5.138 ns/day, 4.671 hours/ns, 29.734 timesteps/s
71.9% CPU use with 1 MPI tasks x 1 OpenMP threads

MPI task timing breakdown:
Section |  min time  |  avg time  |  max time  |%varavg| %total
---------------------------------------------------------------
Pair    | 1.5493     | 1.5493     | 1.5493     |   0.0 | 46.07
Bond    | 0.076045   | 0.076045   | 0.076045   |   0.0 |  2.26
Kspace  | 0.27195    | 0.27195    | 0.27195    |   0.0 |  8.09
Neigh   | 0.80258    | 0.80258    | 0.80258    |   0.0 | 23.86
Comm    | 0.49531    | 0.49531    | 0.49531    |   0.0 | 14.73
Output  | 0.00022704 | 0.00022704 | 0.00022704 |   0.0 |  0.01
Modify  | 0.15787    | 0.15787    | 0.15787    |   0.0 |  4.69
Other   |            | 0.009877   |            |       |  0.29

Nlocal:         256000 ave      256000 max      256000 min
Histogram: 1 0 0 0 0 0 0 0 0 0
Nghost:         163372 ave      163372 max      163372 min
Histogram: 1 0 0 0 0 0 0 0 0 0
Neighs:    1.05605e+08 ave 1.05605e+08 max 1.05605e+08 min
Histogram: 1 0 0 0 0 0 0 0 0 0

Total # of neighbors = 1.0560531e+08
Ave neighs/atom = 412.52076
Ave special neighs/atom = 7.431875
Neighbor list builds = 11
Dangerous builds = 0
Total wall time: 0:00:14
