LAMMPS (17 Feb 2022)
KOKKOS mode is enabled (../kokkos.cpp:105)
  will use up to 1 GPU(s) per node
Reading data file ...
  orthogonal box = (0 0 0) to (40 20 37.2886)
  1 by 1 by 1 MPI processor grid
  reading atoms ...
  32000 atoms
  reading velocities ...
  32000 velocities
  read_data CPU = 0.225 seconds
Replicating atoms ...
  orthogonal box = (0 0 0) to (80 40 37.292229)
  1 by 1 by 1 MPI processor grid
  128000 atoms
  replicate CPU = 0.096 seconds
3648 atoms in group bottom
124352 atoms in group active
  generated 0 of 1 mixed pair_coeff terms from geometric mixing rule
Neighbor list info ...
  update every 1 steps, delay 0 steps, check yes
  max neighbors/atom: 2000, page size: 100000
  master list distance cutoff = 1.1
  ghost atom cutoff = 1.1
  binsize = 1.1, bins = 73 37 34
  1 neighbor lists, perpetual/occasional/extra = 1 0 0
  (1) pair gran/hooke/history/kk, perpetual
      attributes: half, newton off, size, history, kokkos_device
      pair build: half/size/bin/kk/device
      stencil: full/bin/3d
      bin: kk/device
Setting up Verlet run ...
  Unit style    : lj
  Current step  : 0
  Time step     : 0.0001
WARNING: Fixes cannot yet send exchange data in Kokkos communication, switching to classic exchange/border communication (../comm_kokkos.cpp:581)
Per MPI rank memory allocation (min/avg/max) = 154.7 | 154.7 | 154.7 Mbytes
Step Atoms KinEng c_1 Volume 
       0   128000    3136556.5    6404.5051    119335.13 
     100   128000    3137170.2    6284.7755    119338.83 
     200   128000    3137696.3    6296.7559    119344.92 
Loop time of 1.27184 on 1 procs for 200 steps with 128000 atoms

Performance: 1358.666 tau/day, 157.253 timesteps/s
97.3% CPU use with 1 MPI tasks x 1 OpenMP threads

MPI task timing breakdown:
Section |  min time  |  avg time  |  max time  |%varavg| %total
---------------------------------------------------------------
Pair    | 0.27825    | 0.27825    | 0.27825    |   0.0 | 21.88
Neigh   | 0.011444   | 0.011444   | 0.011444   |   0.0 |  0.90
Comm    | 0.048633   | 0.048633   | 0.048633   |   0.0 |  3.82
Output  | 0.0023151  | 0.0023151  | 0.0023151  |   0.0 |  0.18
Modify  | 0.86146    | 0.86146    | 0.86146    |   0.0 | 67.73
Other   |            | 0.06973    |            |       |  5.48

Nlocal:         128000 ave      128000 max      128000 min
Histogram: 1 0 0 0 0 0 0 0 0 0
Nghost:          10785 ave       10785 max       10785 min
Histogram: 1 0 0 0 0 0 0 0 0 0
Neighs:         451806 ave      451806 max      451806 min
Histogram: 1 0 0 0 0 0 0 0 0 0

Total # of neighbors = 451806
Ave neighs/atom = 3.5297344
Neighbor list builds = 5
Dangerous builds = 0
Total wall time: 0:00:02
