LAMMPS (17 Feb 2022)
KOKKOS mode is enabled (../kokkos.cpp:105)
  will use up to 1 GPU(s) per node
Reading data file ...
  orthogonal box = (-27.5 -38.5 -36.3646) to (27.5 38.5 36.3615)
  1 by 1 by 1 MPI processor grid
  reading atoms ...
  32000 atoms
  reading velocities ...
  32000 velocities
  scanning bonds ...
  4 = max bonds/atom
  scanning angles ...
  18 = max angles/atom
  scanning dihedrals ...
  40 = max dihedrals/atom
  scanning impropers ...
  4 = max impropers/atom
  reading bonds ...
  27723 bonds
  reading angles ...
  40467 angles
  reading dihedrals ...
  56829 dihedrals
  reading impropers ...
  1034 impropers
Finding 1-2 1-3 1-4 neighbors ...
  special bond factors lj:    0        0        0       
  special bond factors coul:  0        0        0       
     4 = max # of 1-2 neighbors
    12 = max # of 1-3 neighbors
    24 = max # of 1-4 neighbors
    26 = max # of special neighbors
  special bonds CPU = 0.035 seconds
  read_data CPU = 0.799 seconds
Replicating atoms ...
  orthogonal box = (-27.5 -38.5 -36.3646) to (302.5 423.5 399.992)
  1 by 1 by 1 MPI processor grid
  6912000 atoms
  5988168 bonds
  8740872 angles
  12275064 dihedrals
  223344 impropers
Finding 1-2 1-3 1-4 neighbors ...
  special bond factors lj:    0        0        0       
  special bond factors coul:  0        0        0       
     4 = max # of 1-2 neighbors
    12 = max # of 1-3 neighbors
    24 = max # of 1-4 neighbors
    26 = max # of special neighbors
  special bonds CPU = 10.608 seconds
  replicate CPU = 27.324 seconds
Finding SHAKE clusters ...
  349272 = # of size 2 clusters
  784728 = # of size 3 clusters
  161352 = # of size 4 clusters
  914328 = # of frozen angles
  find clusters CPU = 5.522 seconds
PPPM initialization ...
  using 12-bit tables for long-range coulomb (../kspace.cpp:340)
  G vector (1/distance) = 0.24587501
  grid = 144 192 180
  stencil order = 5
  estimated absolute RMS force accuracy = 0.041154918
  estimated relative force accuracy = 0.00012393681
  using double precision hipFFT
  3d grid and FFT values/proc = 5430305 4976640
  generated 2278 of 2278 mixed pair_coeff terms from arithmetic mixing rule
Neighbor list info ...
  update every 1 steps, delay 5 steps, check yes
  max neighbors/atom: 2000, page size: 100000
  master list distance cutoff = 12
  ghost atom cutoff = 12
  binsize = 12, bins = 28 39 37
  1 neighbor lists, perpetual/occasional/extra = 1 0 0
  (1) pair lj/charmm/coul/long/kk, perpetual
      attributes: half, newton off, kokkos_device
      pair build: half/bin/kk/device
      stencil: full/bin/3d
      bin: kk/device
Setting up Verlet run ...
  Unit style    : real
  Current step  : 0
  Time step     : 2
Per MPI rank memory allocation (min/avg/max) = 1.458e+04 | 1.458e+04 | 1.458e+04 Mbytes
---------------- Step        0 ----- CPU =      0.0000 (sec) ----------------
TotEng   =  -5476857.7796 KinEng   =   4632083.5574 Temp     =       299.0273 
PotEng   = -10108941.3369 E_bond   =    548206.7063 E_angle  =   2359016.8291 
E_dihed  =   1125745.8839 E_impro  =     46118.5025 E_vdwl   =   -498498.4977 
E_coul   =  44025126.7572 E_long   = -57714657.5181 Press    =      -148.7724 
Volume   =  66526927.2360 
---------------- Step       50 ----- CPU =     85.6954 (sec) ----------------
TotEng   =  -5471079.0040 KinEng   =   4644301.6474 Temp     =       299.8160 
PotEng   = -10115380.6514 E_bond   =    533908.4905 E_angle  =   2340728.7334 
E_dihed  =   1131781.5698 E_impro  =     49060.9095 E_vdwl   =   -430469.2158 
E_coul   =  43975743.9090 E_long   = -57716135.0478 Press    =       238.5887 
Volume   =  66534875.0422 
---------------- Step      100 ----- CPU =    176.7078 (sec) ----------------
TotEng   =  -5462439.2669 KinEng   =   4663590.9896 Temp     =       301.0613 
PotEng   = -10126030.2566 E_bond   =    554723.8666 E_angle  =   2328959.6318 
E_dihed  =   1122869.4436 E_impro  =     46806.3138 E_vdwl   =   -410066.0963 
E_coul   =  43945598.0398 E_long   = -57714921.4559 Press    =        10.9600 
Volume   =  66557128.0908 
Loop time of 176.708 on 1 procs for 100 steps with 6912000 atoms

Performance: 0.098 ns/day, 245.428 hours/ns, 0.566 timesteps/s
195.1% CPU use with 1 MPI tasks x 1 OpenMP threads

MPI task timing breakdown:
Section |  min time  |  avg time  |  max time  |%varavg| %total
---------------------------------------------------------------
Pair    | 92.75      | 92.75      | 92.75      |   0.0 | 52.49
Bond    | 5.5126     | 5.5126     | 5.5126     |   0.0 |  3.12
Kspace  | 25.948     | 25.948     | 25.948     |   0.0 | 14.68
Neigh   | 21.088     | 21.088     | 21.088     |   0.0 | 11.93
Comm    | 20.814     | 20.814     | 20.814     |   0.0 | 11.78
Output  | 0.00058573 | 0.00058573 | 0.00058573 |   0.0 |  0.00
Modify  | 9.7122     | 9.7122     | 9.7122     |   0.0 |  5.50
Other   |            | 0.8834     |            |       |  0.50

Nlocal:      6.912e+06 ave   6.912e+06 max   6.912e+06 min
Histogram: 1 0 0 0 0 0 0 0 0 0
Nghost:    1.31365e+06 ave 1.31365e+06 max 1.31365e+06 min
Histogram: 1 0 0 0 0 0 0 0 0 0
Neighs:    -1.61082e+09 ave -1.61082e+09 max -1.61082e+09 min
Histogram: 1 0 0 0 0 0 0 0 0 0

Total # of neighbors = 0
Ave neighs/atom = 0
Ave special neighs/atom = 7.431875
Neighbor list builds = 11
Dangerous builds = 0
Total wall time: 0:04:48
