LAMMPS (17 Feb 2022)
KOKKOS mode is enabled (../kokkos.cpp:105)
  will use up to 1 GPU(s) per node
Lattice spacing in x,y,z = 3.615 3.615 3.615
Created orthogonal box = (0 0 0) to (433.8 433.8 433.8)
  1 by 1 by 1 MPI processor grid
Created 6912000 atoms
  using lattice units in orthogonal box = (0 0 0) to (433.8 433.8 433.8)
  create_atoms CPU = 1.539 seconds
Reading eam potential file Cu_u3.eam with DATE: 2007-06-11
Neighbor list info ...
  update every 1 steps, delay 5 steps, check yes
  max neighbors/atom: 2000, page size: 100000
  master list distance cutoff = 5.95
  ghost atom cutoff = 5.95
  binsize = 5.95, bins = 73 73 73
  1 neighbor lists, perpetual/occasional/extra = 1 0 0
  (1) pair eam/kk, perpetual
      attributes: half, newton off, kokkos_device
      pair build: half/bin/kk/device
      stencil: full/bin/3d
      bin: kk/device
Setting up Verlet run ...
  Unit style    : metal
  Current step  : 0
  Time step     : 0.005
Per MPI rank memory allocation (min/avg/max) = 1332 | 1332 | 1332 Mbytes
Step Temp E_pair E_mol TotEng Press 
       0         1600    -24468480            0    -23038966    18704.155 
      50    781.01113    -23732032            0    -23034241    52276.066 
     100    798.24484    -23747521            0    -23034332    51480.378 
Loop time of 51.2369 on 1 procs for 100 steps with 6912000 atoms

Performance: 0.843 ns/day, 28.465 hours/ns, 1.952 timesteps/s
144.7% CPU use with 1 MPI tasks x 1 OpenMP threads

MPI task timing breakdown:
Section |  min time  |  avg time  |  max time  |%varavg| %total
---------------------------------------------------------------
Pair    | 3.892      | 3.892      | 3.892      |   0.0 |  7.60
Neigh   | 0.9884     | 0.9884     | 0.9884     |   0.0 |  1.93
Comm    | 9.1938     | 9.1938     | 9.1938     |   0.0 | 17.94
Output  | 0.030373   | 0.030373   | 0.030373   |   0.0 |  0.06
Modify  | 36.381     | 36.381     | 36.381     |   0.0 | 71.01
Other   |            | 0.7514     |            |       |  1.47

Nlocal:      6.912e+06 ave   6.912e+06 max   6.912e+06 min
Histogram: 1 0 0 0 0 0 0 0 0 0
Nghost:         622572 ave      622572 max      622572 min
Histogram: 1 0 0 0 0 0 0 0 0 0
Neighs:    2.64909e+08 ave 2.64909e+08 max 2.64909e+08 min
Histogram: 1 0 0 0 0 0 0 0 0 0

Total # of neighbors = 2.6490937e+08
Ave neighs/atom = 38.326008
Neighbor list builds = 16
Dangerous builds = 0
Total wall time: 0:00:57
