LAMMPS (17 Feb 2022)
KOKKOS mode is enabled (../kokkos.cpp:105)
  will use up to 1 GPU(s) per node
Lattice spacing in x,y,z = 3.615 3.615 3.615
Created orthogonal box = (0 0 0) to (144.6 144.6 144.6)
  1 by 1 by 1 MPI processor grid
Created 256000 atoms
  using lattice units in orthogonal box = (0 0 0) to (144.6 144.6 144.6)
  create_atoms CPU = 0.141 seconds
Reading eam potential file Cu_u3.eam with DATE: 2007-06-11
Neighbor list info ...
  update every 1 steps, delay 5 steps, check yes
  max neighbors/atom: 2000, page size: 100000
  master list distance cutoff = 5.95
  ghost atom cutoff = 5.95
  binsize = 5.95, bins = 25 25 25
  1 neighbor lists, perpetual/occasional/extra = 1 0 0
  (1) pair eam/kk, perpetual
      attributes: half, newton on, kokkos_device
      pair build: half/bin/kk/device
      stencil: half/bin/3d
      bin: kk/device
Setting up Verlet run ...
  Unit style    : metal
  Current step  : 0
  Time step     : 0.005
Per MPI rank memory allocation (min/avg/max) = 59.28 | 59.28 | 59.28 Mbytes
Step Temp E_pair E_mol TotEng Press 
       0         1600      -906240            0   -853295.25    18704.085 
      50    780.87746   -878959.88            0   -853120.28    52273.992 
     100    800.58622   -879616.44            0   -853124.67    51381.906 
Loop time of 0.636961 on 1 procs for 100 steps with 256000 atoms

Performance: 67.822 ns/day, 0.354 hours/ns, 156.995 timesteps/s
89.2% CPU use with 1 MPI tasks x 1 OpenMP threads

MPI task timing breakdown:
Section |  min time  |  avg time  |  max time  |%varavg| %total
---------------------------------------------------------------
Pair    | 0.20524    | 0.20524    | 0.20524    |   0.0 | 32.22
Neigh   | 0.031554   | 0.031554   | 0.031554   |   0.0 |  4.95
Comm    | 0.27924    | 0.27924    | 0.27924    |   0.0 | 43.84
Output  | 0.00028352 | 0.00028352 | 0.00028352 |   0.0 |  0.04
Modify  | 0.073462   | 0.073462   | 0.073462   |   0.0 | 11.53
Other   |            | 0.04718    |            |       |  7.41

Nlocal:         256000 ave      256000 max      256000 min
Histogram: 1 0 0 0 0 0 0 0 0 0
Nghost:          73249 ave       73249 max       73249 min
Histogram: 1 0 0 0 0 0 0 0 0 0
Neighs:    9.65725e+06 ave 9.65725e+06 max 9.65725e+06 min
Histogram: 1 0 0 0 0 0 0 0 0 0

Total # of neighbors = 9657248
Ave neighs/atom = 37.723625
Neighbor list builds = 14
Dangerous builds = 0
Total wall time: 0:00:01
