LAMMPS (17 Feb 2022)
KOKKOS mode is enabled (../kokkos.cpp:105)
  will use up to 1 GPU(s) per node
Reading data file ...
  orthogonal box = (0 0 0) to (9.491065 9.491065 6.99123)
  1 by 1 by 1 MPI processor grid
  reading atoms ...
  58 atoms
  read_data CPU = 0.004 seconds
Replicating atoms ...
  orthogonal box = (0 0 0) to (151.85704 151.85704 111.85968)
  1 by 1 by 1 MPI processor grid
  237568 atoms
  replicate CPU = 0.124 seconds
WARNING: Changed valency_val to valency_boc for X (../reaxff_ffield.cpp:296)

CITE-CITE-CITE-CITE-CITE-CITE-CITE-CITE-CITE-CITE-CITE-CITE-CITE

Your simulation uses code contributions which should be cited:
- pair reaxff command:
- fix qeq/reaxff command:
The log file lists these citations in BibTeX format.

CITE-CITE-CITE-CITE-CITE-CITE-CITE-CITE-CITE-CITE-CITE-CITE-CITE

Neighbor list info ...
  update every 1 steps, delay 10 steps, check yes
  max neighbors/atom: 2000, page size: 100000
  master list distance cutoff = 12
  ghost atom cutoff = 12
  binsize = 12, bins = 13 13 10
  2 neighbor lists, perpetual/occasional/extra = 2 0 0
  (1) pair reax/c/kk, perpetual
      attributes: half, newton off, ghost, kokkos_device
      pair build: half/bin/ghost/kk/device
      stencil: full/ghost/bin/3d
      bin: kk/device
  (2) fix qeq/reax/kk, perpetual, copy from (1)
      attributes: half, newton off, ghost, kokkos_device
      pair build: copy/kk/device
      stencil: none
      bin: none
Setting up Verlet run ...
  Unit style    : real
  Current step  : 0
  Time step     : 0.1
Per MPI rank memory allocation (min/avg/max) = 3017 | 3017 | 3017 Mbytes
Step Temp KinEng PotEng Pxx Pyy Pzz TotEng 
       0          300    212442.63    -23640801    22808.349   -29363.082    6296.8995    -23428358 
     100    281.02945    199008.78    -23627731   -1600.9745   -7195.7027   -1684.9364    -23428722 
Loop time of 62.1428 on 1 procs for 100 steps with 237568 atoms

Performance: 0.014 ns/day, 1726.188 hours/ns, 1.609 timesteps/s
77.8% CPU use with 1 MPI tasks x 1 OpenMP threads

MPI task timing breakdown:
Section |  min time  |  avg time  |  max time  |%varavg| %total
---------------------------------------------------------------
Pair    | 10.415     | 10.415     | 10.415     |   0.0 | 16.76
Neigh   | 0          | 0          | 0          |   0.0 |  0.00
Comm    | 0.95123    | 0.95123    | 0.95123    |   0.0 |  1.53
Output  | 0.00023371 | 0.00023371 | 0.00023371 |   0.0 |  0.00
Modify  | 50.762     | 50.762     | 50.762     |   0.0 | 81.69
Other   |            | 0.01352    |            |       |  0.02

Nlocal:         237568 ave      237568 max      237568 min
Histogram: 1 0 0 0 0 0 0 0 0 0
Nghost:         147955 ave      147955 max      147955 min
Histogram: 1 0 0 0 0 0 0 0 0 0
Neighs:    8.68035e+07 ave 8.68035e+07 max 8.68035e+07 min
Histogram: 1 0 0 0 0 0 0 0 0 0

Total # of neighbors = 86803481
Ave neighs/atom = 365.38373
Neighbor list builds = 0
Dangerous builds = 0
Total wall time: 0:01:05
