LAMMPS (17 Feb 2022)
KOKKOS mode is enabled (../kokkos.cpp:105)
  will use up to 1 GPU(s) per node
Reading data file ...
  orthogonal box = (0 0 0) to (9.491065 9.491065 6.99123)
  1 by 1 by 1 MPI processor grid
  reading atoms ...
  58 atoms
  read_data CPU = 0.016 seconds
Replicating atoms ...
  orthogonal box = (0 0 0) to (75.92852 75.92852 55.92984)
  1 by 1 by 1 MPI processor grid
  29696 atoms
  replicate CPU = 0.007 seconds
WARNING: Changed valency_val to valency_boc for X (../reaxff_ffield.cpp:296)

CITE-CITE-CITE-CITE-CITE-CITE-CITE-CITE-CITE-CITE-CITE-CITE-CITE

Your simulation uses code contributions which should be cited:
- pair reaxff command:
- fix qeq/reaxff command:
The log file lists these citations in BibTeX format.

CITE-CITE-CITE-CITE-CITE-CITE-CITE-CITE-CITE-CITE-CITE-CITE-CITE

Neighbor list info ...
  update every 1 steps, delay 10 steps, check yes
  max neighbors/atom: 2000, page size: 100000
  master list distance cutoff = 12
  ghost atom cutoff = 12
  binsize = 12, bins = 7 7 5
  2 neighbor lists, perpetual/occasional/extra = 2 0 0
  (1) pair reax/c/kk, perpetual
      attributes: half, newton off, ghost, kokkos_device
      pair build: half/bin/ghost/kk/device
      stencil: full/ghost/bin/3d
      bin: kk/device
  (2) fix qeq/reax/kk, perpetual, copy from (1)
      attributes: half, newton off, ghost, kokkos_device
      pair build: copy/kk/device
      stencil: none
      bin: none
Setting up Verlet run ...
  Unit style    : real
  Current step  : 0
  Time step     : 0.1
Per MPI rank memory allocation (min/avg/max) = 519.7 | 519.7 | 519.7 Mbytes
Step Temp KinEng PotEng Pxx Pyy Pzz TotEng 
       0          300    26554.546   -2955100.1    22804.266   -29366.459    6304.0298   -2928545.6 
     100    280.41494    24820.972   -2953414.8    -1267.869    -8060.588   -1577.5861   -2928593.9 
Loop time of 7.06402 on 1 procs for 100 steps with 29696 atoms

Performance: 0.122 ns/day, 196.223 hours/ns, 14.156 timesteps/s
184.4% CPU use with 1 MPI tasks x 1 OpenMP threads

MPI task timing breakdown:
Section |  min time  |  avg time  |  max time  |%varavg| %total
---------------------------------------------------------------
Pair    | 2.1381     | 2.1381     | 2.1381     |   0.0 | 30.27
Neigh   | 0          | 0          | 0          |   0.0 |  0.00
Comm    | 0.24704    | 0.24704    | 0.24704    |   0.0 |  3.50
Output  | 0.00014731 | 0.00014731 | 0.00014731 |   0.0 |  0.00
Modify  | 4.6719     | 4.6719     | 4.6719     |   0.0 | 66.14
Other   |            | 0.00681    |            |       |  0.10

Nlocal:          29696 ave       29696 max       29696 min
Histogram: 1 0 0 0 0 0 0 0 0 0
Nghost:          43291 ave       43291 max       43291 min
Histogram: 1 0 0 0 0 0 0 0 0 0
Neighs:    1.17513e+07 ave 1.17513e+07 max 1.17513e+07 min
Histogram: 1 0 0 0 0 0 0 0 0 0

Total # of neighbors = 11751281
Ave neighs/atom = 395.71932
Neighbor list builds = 0
Dangerous builds = 0
Total wall time: 0:00:08
