LAMMPS (17 Feb 2022)
KOKKOS mode is enabled (../kokkos.cpp:105)
  will use up to 1 GPU(s) per node
Reading data file ...
  orthogonal box = (0.11598334 0.11598334 0.11598334) to (76.884017 76.884017 76.884017)
  1 by 1 by 1 MPI processor grid
WARNING: Pair style in data file differs from currently defined pair style (../read_data.cpp:613)
  reading atoms ...
  45000 atoms
  reading velocities ...
  45000 velocities
  scanning bonds ...
  1 = max bonds/atom
  scanning angles ...
  1 = max angles/atom
  reading bonds ...
  30000 bonds
  reading angles ...
  15000 angles
Finding 1-2 1-3 1-4 neighbors ...
  special bond factors lj:    0        0        0       
  special bond factors coul:  0        0        0       
     2 = max # of 1-2 neighbors
     1 = max # of 1-3 neighbors
     1 = max # of 1-4 neighbors
     2 = max # of special neighbors
  special bonds CPU = 0.010 seconds
  read_data CPU = 0.275 seconds
Replicating atoms ...
  orthogonal box = (0.11598334 0.11598334 0.11598334) to (307.18812 307.18812 307.18812)
  1 by 1 by 1 MPI processor grid
  2880000 atoms
  1920000 bonds
  960000 angles
Finding 1-2 1-3 1-4 neighbors ...
  special bond factors lj:    0        0        0       
  special bond factors coul:  0        0        0       
     2 = max # of 1-2 neighbors
     1 = max # of 1-3 neighbors
     1 = max # of 1-4 neighbors
     2 = max # of special neighbors
  special bonds CPU = 4.333 seconds
  replicate CPU = 7.287 seconds
PPPM initialization ...
  using 12-bit tables for long-range coulomb (../kspace.cpp:340)
  G vector (1/distance) = 0.23076479
  grid = 192 192 192
  stencil order = 5
  estimated absolute RMS force accuracy = 0.0035267981
  estimated relative force accuracy = 1.0620848e-05
  using double precision hipFFT
  3d grid and FFT values/proc = 7880599 7077888
  generated 0 of 1 mixed pair_coeff terms from geometric mixing rule
Neighbor list info ...
  update every 1 steps, delay 10 steps, check yes
  max neighbors/atom: 2000, page size: 100000
  master list distance cutoff = 15
  ghost atom cutoff = 15
  binsize = 15, bins = 21 21 21
  1 neighbor lists, perpetual/occasional/extra = 1 0 0
  (1) pair lj/class2/coul/long/kk, perpetual
      attributes: full, newton on, kokkos_device
      pair build: full/bin/kk/device
      stencil: full/bin/3d
      bin: kk/device
Setting up Verlet run ...
  Unit style    : real
  Current step  : 0
  Time step     : 0.01
Per MPI rank memory allocation (min/avg/max) = 2505 | 2505 | 2505 Mbytes
---------------- Step        0 ----- CPU =      0.0000 (sec) ----------------
TotEng   =  -9362808.8305 KinEng   =   2662553.9981 Temp     =       310.1500 
PotEng   = -12025362.8286 E_bond   =         0.0278 E_angle  =         0.0000 
E_dihed  =         0.0000 E_impro  =         0.0000 E_vdwl   =   -350562.7284 
E_coul   =  31606384.8014 E_long   = -43281184.9294 Press    =     -2987.0071 
---------------- Step      100 ----- CPU =     63.4786 (sec) ----------------
TotEng   =  -9362807.0385 KinEng   =   2585472.5448 Temp     =       301.1711 
PotEng   = -11948279.5833 E_bond   =    220164.7073 E_angle  =     31287.7535 
E_dihed  =         0.0000 E_impro  =         0.0000 E_vdwl   =   -350348.9919 
E_coul   =  31431562.6269 E_long   = -43280945.6790 Press    =     -8658.0636 
Loop time of 63.4787 on 1 procs for 100 steps with 2880000 atoms

Performance: 0.001 ns/day, 17632.960 hours/ns, 1.575 timesteps/s
132.1% CPU use with 1 MPI tasks x 1 OpenMP threads

MPI task timing breakdown:
Section |  min time  |  avg time  |  max time  |%varavg| %total
---------------------------------------------------------------
Pair    | 0.50639    | 0.50639    | 0.50639    |   0.0 |  0.80
Bond    | 30.077     | 30.077     | 30.077     |   0.0 | 47.38
Kspace  | 27.322     | 27.322     | 27.322     |   0.0 | 43.04
Neigh   | 0          | 0          | 0          |   0.0 |  0.00
Comm    | 5.4085     | 5.4085     | 5.4085     |   0.0 |  8.52
Output  | 0.00019512 | 0.00019512 | 0.00019512 |   0.0 |  0.00
Modify  | 0.056791   | 0.056791   | 0.056791   |   0.0 |  0.09
Other   |            | 0.1074     |            |       |  0.17

Nlocal:       2.88e+06 ave    2.88e+06 max    2.88e+06 min
Histogram: 1 0 0 0 0 0 0 0 0 0
Nghost:         928319 ave      928319 max      928319 min
Histogram: 1 0 0 0 0 0 0 0 0 0
Neighs:              0 ave           0 max           0 min
Histogram: 1 0 0 0 0 0 0 0 0 0
FullNghs:  -2.47561e+08 ave -2.47561e+08 max -2.47561e+08 min
Histogram: 1 0 0 0 0 0 0 0 0 0

Total # of neighbors = 0
Ave neighs/atom = 0
Ave special neighs/atom = 2
Neighbor list builds = 0
Dangerous builds = 0
Total wall time: 0:01:22
