LAMMPS (17 Feb 2022)
KOKKOS mode is enabled (../kokkos.cpp:105)
  will use up to 1 GPU(s) per node
Reading data file ...
  orthogonal box = (-27.5 -38.5 -36.3646) to (27.5 38.5 36.3615)
  1 by 1 by 1 MPI processor grid
  reading atoms ...
  32000 atoms
  reading velocities ...
  32000 velocities
  scanning bonds ...
  4 = max bonds/atom
  scanning angles ...
  8 = max angles/atom
  scanning dihedrals ...
  18 = max dihedrals/atom
  scanning impropers ...
  2 = max impropers/atom
  reading bonds ...
  27723 bonds
  reading angles ...
  40467 angles
  reading dihedrals ...
  56829 dihedrals
  reading impropers ...
  1034 impropers
Finding 1-2 1-3 1-4 neighbors ...
  special bond factors lj:    0        0        0       
  special bond factors coul:  0        0        0       
     4 = max # of 1-2 neighbors
    12 = max # of 1-3 neighbors
    24 = max # of 1-4 neighbors
    26 = max # of special neighbors
  special bonds CPU = 0.038 seconds
  read_data CPU = 0.415 seconds
Replicating atoms ...
  orthogonal box = (-27.5 -38.5 -36.3646) to (192.5 269.5 254.5398)
  1 by 1 by 1 MPI processor grid
  2048000 atoms
  1774272 bonds
  2589888 angles
  3637056 dihedrals
  66176 impropers
Finding 1-2 1-3 1-4 neighbors ...
  special bond factors lj:    0        0        0       
  special bond factors coul:  0        0        0       
     4 = max # of 1-2 neighbors
    12 = max # of 1-3 neighbors
    24 = max # of 1-4 neighbors
    26 = max # of special neighbors
  special bonds CPU = 3.417 seconds
  replicate CPU = 6.104 seconds
Finding SHAKE clusters ...
  103488 = # of size 2 clusters
  232512 = # of size 3 clusters
   47808 = # of size 4 clusters
  270912 = # of frozen angles
  find clusters CPU = 1.445 seconds
PPPM initialization ...
  using 12-bit tables for long-range coulomb (../kspace.cpp:340)
  G vector (1/distance) = 0.24521748
  grid = 96 125 120
  stencil order = 5
  estimated absolute RMS force accuracy = 0.042505564
  estimated relative force accuracy = 0.00012800424
  using double precision hipFFT
  3d grid and FFT values/proc = 1641250 1440000
  generated 2278 of 2278 mixed pair_coeff terms from arithmetic mixing rule
Neighbor list info ...
  update every 1 steps, delay 5 steps, check yes
  max neighbors/atom: 2000, page size: 100000
  master list distance cutoff = 12
  ghost atom cutoff = 12
  binsize = 12, bins = 19 26 25
  1 neighbor lists, perpetual/occasional/extra = 1 0 0
  (1) pair lj/charmm/coul/long/kk, perpetual
      attributes: half, newton on, kokkos_device
      pair build: half/bin/kk/device
      stencil: half/bin/3d
      bin: kk/device
Setting up Verlet run ...
  Unit style    : real
  Current step  : 0
  Time step     : 2
WARNING: Fixes cannot yet send exchange data in Kokkos communication, switching to classic exchange/border communication (../comm_kokkos.cpp:581)
Per MPI rank memory allocation (min/avg/max) = 3039 | 3039 | 3039 Mbytes
---------------- Step        0 ----- CPU =      0.0000 (sec) ----------------
TotEng   =  -1622758.4645 KinEng   =   1372469.2022 Temp     =       299.0274 
PotEng   =  -2995227.6667 E_bond   =    162431.6167 E_angle  =    698967.9493 
E_dihed  =    333554.3360 E_impro  =     13664.7415 E_vdwl   =   -147703.2586 
E_coul   =  12998899.2230 E_long   = -17055042.2746 Press    =      -148.6868 
Volume   =  19711682.1440 
---------------- Step       50 ----- CPU =     22.0103 (sec) ----------------
TotEng   =  -1621042.3982 KinEng   =   1376072.7778 Temp     =       299.8126 
PotEng   =  -2997115.1760 E_bond   =    158195.5397 E_angle  =    693548.4972 
E_dihed  =    335344.1970 E_impro  =     14535.9730 E_vdwl   =   -127551.7596 
E_coul   =  12984284.7484 E_long   = -17055472.3717 Press    =       238.7584 
Volume   =  19714039.4158 
---------------- Step      100 ----- CPU =     45.4970 (sec) ----------------
TotEng   =  -1618503.6701 KinEng   =   1381844.3638 Temp     =       301.0701 
PotEng   =  -3000348.0338 E_bond   =    164361.2042 E_angle  =    690056.8065 
E_dihed  =    332707.9360 E_impro  =     13870.0483 E_vdwl   =   -121503.8020 
E_coul   =  12975291.0203 E_long   = -17055131.2471 Press    =        11.4736 
Volume   =  19720644.8628 
Loop time of 45.497 on 1 procs for 100 steps with 2048000 atoms

Performance: 0.380 ns/day, 63.190 hours/ns, 2.198 timesteps/s
175.2% CPU use with 1 MPI tasks x 1 OpenMP threads

MPI task timing breakdown:
Section |  min time  |  avg time  |  max time  |%varavg| %total
---------------------------------------------------------------
Pair    | 24.667     | 24.667     | 24.667     |   0.0 | 54.22
Bond    | 1.3051     | 1.3051     | 1.3051     |   0.0 |  2.87
Kspace  | 6.0941     | 6.0941     | 6.0941     |   0.0 | 13.39
Neigh   | 4.8756     | 4.8756     | 4.8756     |   0.0 | 10.72
Comm    | 7.8782     | 7.8782     | 7.8782     |   0.0 | 17.32
Output  | 0.00031419 | 0.00031419 | 0.00031419 |   0.0 |  0.00
Modify  | 0.60779    | 0.60779    | 0.60779    |   0.0 |  1.34
Other   |            | 0.0687     |            |       |  0.15

Nlocal:      2.048e+06 ave   2.048e+06 max   2.048e+06 min
Histogram: 1 0 0 0 0 0 0 0 0 0
Nghost:         600791 ave      600791 max      600791 min
Histogram: 1 0 0 0 0 0 0 0 0 0
Neighs:    7.69793e+08 ave 7.69793e+08 max 7.69793e+08 min
Histogram: 1 0 0 0 0 0 0 0 0 0

Total # of neighbors = 7.6979262e+08
Ave neighs/atom = 375.8753
Ave special neighs/atom = 7.431875
Neighbor list builds = 11
Dangerous builds = 0
Total wall time: 0:01:14
