LAMMPS (17 Feb 2022)
KOKKOS mode is enabled (../kokkos.cpp:105)
  will use up to 1 GPU(s) per node
Lattice spacing in x,y,z = 1.6795962 1.6795962 1.6795962
Created orthogonal box = (0 0 0) to (67.183848 67.183848 67.183848)
  1 by 1 by 1 MPI processor grid
Created 256000 atoms
  using lattice units in orthogonal box = (0 0 0) to (67.183848 67.183848 67.183848)
  create_atoms CPU = 0.120 seconds
  generated 0 of 0 mixed pair_coeff terms from geometric mixing rule
Neighbor list info ...
  update every 20 steps, delay 0 steps, check no
  max neighbors/atom: 2000, page size: 100000
  master list distance cutoff = 2.8
  ghost atom cutoff = 2.8
  binsize = 2.8, bins = 24 24 24
  1 neighbor lists, perpetual/occasional/extra = 1 0 0
  (1) pair lj/cut/kk, perpetual
      attributes: half, newton off, kokkos_device
      pair build: half/bin/kk/device
      stencil: full/bin/3d
      bin: kk/device
Setting up Verlet run ...
  Unit style    : lj
  Current step  : 0
  Time step     : 0.005
Per MPI rank memory allocation (min/avg/max) = 44.02 | 44.02 | 44.02 Mbytes
Step Temp E_pair E_mol TotEng Press 
       0         1.44   -6.7733681            0   -4.6133765    -5.019674 
     100   0.75865617   -5.7603259            0   -4.6223461   0.19586104 
Loop time of 0.222643 on 1 procs for 100 steps with 256000 atoms

Performance: 194032.867 tau/day, 449.150 timesteps/s
193.1% CPU use with 1 MPI tasks x 1 OpenMP threads

MPI task timing breakdown:
Section |  min time  |  avg time  |  max time  |%varavg| %total
---------------------------------------------------------------
Pair    | 0.016998   | 0.016998   | 0.016998   |   0.0 |  7.63
Neigh   | 0.0097675  | 0.0097675  | 0.0097675  |   0.0 |  4.39
Comm    | 0.013249   | 0.013249   | 0.013249   |   0.0 |  5.95
Output  | 0.00010811 | 0.00010811 | 0.00010811 |   0.0 |  0.05
Modify  | 0.17866    | 0.17866    | 0.17866    |   0.0 | 80.25
Other   |            | 0.003859   |            |       |  1.73

Nlocal:         256000 ave      256000 max      256000 min
Histogram: 1 0 0 0 0 0 0 0 0 0
Nghost:          72330 ave       72330 max       72330 min
Histogram: 1 0 0 0 0 0 0 0 0 0
Neighs:    1.00633e+07 ave 1.00633e+07 max 1.00633e+07 min
Histogram: 1 0 0 0 0 0 0 0 0 0

Total # of neighbors = 10063266
Ave neighs/atom = 39.309633
Neighbor list builds = 5
Dangerous builds not checked
Total wall time: 0:00:01
