LAMMPS (17 Feb 2022)
KOKKOS mode is enabled (../kokkos.cpp:105)
  will use up to 1 GPU(s) per node
Reading data file ...
  orthogonal box = (0 0 0) to (40 20 37.2886)
  1 by 1 by 1 MPI processor grid
  reading atoms ...
  32000 atoms
  reading velocities ...
  32000 velocities
  read_data CPU = 0.226 seconds
Replicating atoms ...
  orthogonal box = (0 0 0) to (160 80 37.292229)
  1 by 1 by 1 MPI processor grid
  512000 atoms
  replicate CPU = 0.351 seconds
14592 atoms in group bottom
497408 atoms in group active
  generated 0 of 1 mixed pair_coeff terms from geometric mixing rule
Neighbor list info ...
  update every 1 steps, delay 0 steps, check yes
  max neighbors/atom: 2000, page size: 100000
  master list distance cutoff = 1.1
  ghost atom cutoff = 1.1
  binsize = 1.1, bins = 146 73 34
  1 neighbor lists, perpetual/occasional/extra = 1 0 0
  (1) pair gran/hooke/history/kk, perpetual
      attributes: half, newton off, size, history, kokkos_device
      pair build: half/size/bin/kk/device
      stencil: full/bin/3d
      bin: kk/device
Setting up Verlet run ...
  Unit style    : lj
  Current step  : 0
  Time step     : 0.0001
Per MPI rank memory allocation (min/avg/max) = 591.4 | 591.4 | 591.4 Mbytes
Step Atoms KinEng c_1 Volume 
       0   512000     12546226    25618.021    477340.53 
     100   512000     12548677    25138.326    477355.32 
     200   512000     12550774     25184.42    477379.69 
Loop time of 1.70215 on 1 procs for 200 steps with 512000 atoms

Performance: 1015.188 tau/day, 117.499 timesteps/s
94.3% CPU use with 1 MPI tasks x 1 OpenMP threads

MPI task timing breakdown:
Section |  min time  |  avg time  |  max time  |%varavg| %total
---------------------------------------------------------------
Pair    | 0.8607     | 0.8607     | 0.8607     |   0.0 | 50.57
Neigh   | 0.037797   | 0.037797   | 0.037797   |   0.0 |  2.22
Comm    | 0.56177    | 0.56177    | 0.56177    |   0.0 | 33.00
Output  | 0.0064539  | 0.0064539  | 0.0064539  |   0.0 |  0.38
Modify  | 0.14558    | 0.14558    | 0.14558    |   0.0 |  8.55
Other   |            | 0.08985    |            |       |  5.28

Nlocal:         512000 ave      512000 max      512000 min
Histogram: 1 0 0 0 0 0 0 0 0 0
Nghost:          21373 ave       21373 max       21373 min
Histogram: 1 0 0 0 0 0 0 0 0 0
Neighs:     1.7903e+06 ave  1.7903e+06 max  1.7903e+06 min
Histogram: 1 0 0 0 0 0 0 0 0 0

Total # of neighbors = 1790302
Ave neighs/atom = 3.4966836
Neighbor list builds = 5
Dangerous builds = 0
Total wall time: 0:00:03
