LAMMPS (17 Feb 2022)
KOKKOS mode is enabled (../kokkos.cpp:105)
  will use up to 1 GPU(s) per node
Reading data file ...
  orthogonal box = (0 0 0) to (9.491065 9.491065 6.99123)
  1 by 1 by 1 MPI processor grid
  reading atoms ...
  58 atoms
  read_data CPU = 0.023 seconds
Replicating atoms ...
  orthogonal box = (0 0 0) to (151.85704 151.85704 111.85968)
  1 by 1 by 1 MPI processor grid
  237568 atoms
  replicate CPU = 0.092 seconds
WARNING: Changed valency_val to valency_boc for X (../reaxff_ffield.cpp:296)

CITE-CITE-CITE-CITE-CITE-CITE-CITE-CITE-CITE-CITE-CITE-CITE-CITE

Your simulation uses code contributions which should be cited:
- pair reaxff command:
- fix qeq/reaxff command:
The log file lists these citations in BibTeX format.

CITE-CITE-CITE-CITE-CITE-CITE-CITE-CITE-CITE-CITE-CITE-CITE-CITE

Neighbor list info ...
  update every 1 steps, delay 10 steps, check yes
  max neighbors/atom: 2000, page size: 100000
  master list distance cutoff = 12
  ghost atom cutoff = 12
  binsize = 12, bins = 13 13 10
  2 neighbor lists, perpetual/occasional/extra = 2 0 0
  (1) pair reax/c/kk, perpetual, half/full from (2)
      attributes: half, newton off, ghost, kokkos_device
      pair build: halffull/newtoff/ghost/kk/device
      stencil: none
      bin: none
  (2) fix qeq/reax/kk, perpetual
      attributes: full, newton off, ghost, kokkos_device
      pair build: full/bin/ghost/kk/device
      stencil: full/ghost/bin/3d
      bin: kk/device
Setting up Verlet run ...
  Unit style    : real
  Current step  : 0
  Time step     : 0.1
Per MPI rank memory allocation (min/avg/max) = 3841 | 3841 | 3841 Mbytes
Step Temp KinEng PotEng Pxx Pyy Pzz TotEng 
       0          300    212442.63    -23640801     22808.35   -29363.081    6296.8998    -23428358 
     100    281.02942    199008.76    -23627731    -1600.769   -7195.6298   -1684.7725    -23428722 
Loop time of 23.8307 on 1 procs for 100 steps with 237568 atoms

Performance: 0.036 ns/day, 661.965 hours/ns, 4.196 timesteps/s
159.4% CPU use with 1 MPI tasks x 1 OpenMP threads

MPI task timing breakdown:
Section |  min time  |  avg time  |  max time  |%varavg| %total
---------------------------------------------------------------
Pair    | 13.398     | 13.398     | 13.398     |   0.0 | 56.22
Neigh   | 0          | 0          | 0          |   0.0 |  0.00
Comm    | 1.3925     | 1.3925     | 1.3925     |   0.0 |  5.84
Output  | 0.00020444 | 0.00020444 | 0.00020444 |   0.0 |  0.00
Modify  | 9.0224     | 9.0224     | 9.0224     |   0.0 | 37.86
Other   |            | 0.0178     |            |       |  0.07

Nlocal:         237568 ave      237568 max      237568 min
Histogram: 1 0 0 0 0 0 0 0 0 0
Nghost:         147955 ave      147955 max      147955 min
Histogram: 1 0 0 0 0 0 0 0 0 0
Neighs:    8.68035e+07 ave 8.68035e+07 max 8.68035e+07 min
Histogram: 1 0 0 0 0 0 0 0 0 0
FullNghs:  1.58278e+08 ave 1.58278e+08 max 1.58278e+08 min
Histogram: 1 0 0 0 0 0 0 0 0 0

Total # of neighbors = 1.5827763e+08
Ave neighs/atom = 666.24138
Neighbor list builds = 0
Dangerous builds = 0
Total wall time: 0:00:26
