LAMMPS (17 Feb 2022)
KOKKOS mode is enabled (../kokkos.cpp:105)
  will use up to 1 GPU(s) per node
Reading data file ...
  orthogonal box = (-27.5 -38.5 -36.3646) to (27.5 38.5 36.3615)
  1 by 1 by 1 MPI processor grid
  reading atoms ...
  32000 atoms
  reading velocities ...
  32000 velocities
  scanning bonds ...
  4 = max bonds/atom
  scanning angles ...
  8 = max angles/atom
  scanning dihedrals ...
  18 = max dihedrals/atom
  scanning impropers ...
  2 = max impropers/atom
  reading bonds ...
  27723 bonds
  reading angles ...
  40467 angles
  reading dihedrals ...
  56829 dihedrals
  reading impropers ...
  1034 impropers
Finding 1-2 1-3 1-4 neighbors ...
  special bond factors lj:    0        0        0       
  special bond factors coul:  0        0        0       
     4 = max # of 1-2 neighbors
    12 = max # of 1-3 neighbors
    24 = max # of 1-4 neighbors
    26 = max # of special neighbors
  special bonds CPU = 0.041 seconds
  read_data CPU = 0.889 seconds
Replicating atoms ...
  orthogonal box = (-27.5 -38.5 -36.3646) to (302.5 423.5 399.992)
  1 by 1 by 1 MPI processor grid
  6912000 atoms
  5988168 bonds
  8740872 angles
  12275064 dihedrals
  223344 impropers
Finding 1-2 1-3 1-4 neighbors ...
  special bond factors lj:    0        0        0       
  special bond factors coul:  0        0        0       
     4 = max # of 1-2 neighbors
    12 = max # of 1-3 neighbors
    24 = max # of 1-4 neighbors
    26 = max # of special neighbors
  special bonds CPU = 11.733 seconds
  replicate CPU = 28.413 seconds
Finding SHAKE clusters ...
  349272 = # of size 2 clusters
  784728 = # of size 3 clusters
  161352 = # of size 4 clusters
  914328 = # of frozen angles
  find clusters CPU = 5.551 seconds
PPPM initialization ...
  using 12-bit tables for long-range coulomb (../kspace.cpp:340)
  G vector (1/distance) = 0.24587501
  grid = 144 192 180
  stencil order = 5
  estimated absolute RMS force accuracy = 0.041154918
  estimated relative force accuracy = 0.00012393681
  using double precision cuFFT
  3d grid and FFT values/proc = 5430305 4976640
ERROR: Cannot use the cuFFT library with Kokkos CUDA on the host CPUs (../fft3d_kokkos.cpp:55)
Last command: run		100
