LAMMPS (17 Feb 2022)
KOKKOS mode is enabled (../kokkos.cpp:105)
  will use up to 1 GPU(s) per node
Reading data file ...
  orthogonal box = (0 0 0) to (40 20 37.2886)
  1 by 1 by 1 MPI processor grid
  reading atoms ...
  32000 atoms
  reading velocities ...
  32000 velocities
  read_data CPU = 0.181 seconds
Replicating atoms ...
  orthogonal box = (0 0 0) to (480 240 37.292229)
  1 by 1 by 1 MPI processor grid
  4608000 atoms
  replicate CPU = 1.942 seconds
131328 atoms in group bottom
4476672 atoms in group active
  generated 0 of 1 mixed pair_coeff terms from geometric mixing rule
Neighbor list info ...
  update every 1 steps, delay 0 steps, check yes
  max neighbors/atom: 2000, page size: 100000
  master list distance cutoff = 1.1
  ghost atom cutoff = 1.1
  binsize = 1.1, bins = 437 219 34
  1 neighbor lists, perpetual/occasional/extra = 1 0 0
  (1) pair gran/hooke/history/kk, perpetual
      attributes: half, newton off, size, history, kokkos_device
      pair build: half/size/bin/kk/device
      stencil: full/bin/3d
      bin: kk/device
Setting up Verlet run ...
  Unit style    : lj
  Current step  : 0
  Time step     : 0.0001
Per MPI rank memory allocation (min/avg/max) = 5157 | 5157 | 5157 Mbytes
Step Atoms KinEng c_1 Volume 
       0  4608000 1.1291603e+08    230562.19    4296064.8 
     100  4608000 1.1293807e+08    226240.27    4296197.9 
     200  4608000 1.129569e+08    226644.15    4296417.2 
Loop time of 34.2658 on 1 procs for 200 steps with 4608000 atoms

Performance: 50.429 tau/day, 5.837 timesteps/s
126.0% CPU use with 1 MPI tasks x 1 OpenMP threads

MPI task timing breakdown:
Section |  min time  |  avg time  |  max time  |%varavg| %total
---------------------------------------------------------------
Pair    | 7.2924     | 7.2924     | 7.2924     |   0.0 | 21.28
Neigh   | 0.34072    | 0.34072    | 0.34072    |   0.0 |  0.99
Comm    | 0.66488    | 0.66488    | 0.66488    |   0.0 |  1.94
Output  | 0.037697   | 0.037697   | 0.037697   |   0.0 |  0.11
Modify  | 23.622     | 23.622     | 23.622     |   0.0 | 68.94
Other   |            | 2.308      |            |       |  6.74

Nlocal:      4.608e+06 ave   4.608e+06 max   4.608e+06 min
Histogram: 1 0 0 0 0 0 0 0 0 0
Nghost:          63725 ave       63725 max       63725 min
Histogram: 1 0 0 0 0 0 0 0 0 0
Neighs:    1.60108e+07 ave 1.60108e+07 max 1.60108e+07 min
Histogram: 1 0 0 0 0 0 0 0 0 0

Total # of neighbors = 16010846
Ave neighs/atom = 3.474576
Neighbor list builds = 5
Dangerous builds = 0
Total wall time: 0:00:42
