LAMMPS (17 Feb 2022)
KOKKOS mode is enabled (../kokkos.cpp:105)
  will use up to 1 GPU(s) per node
Lattice spacing in x,y,z = 3.615 3.615 3.615
Created orthogonal box = (0 0 0) to (867.6 867.6 867.6)
  1 by 1 by 1 MPI processor grid
Created 55296000 atoms
  using lattice units in orthogonal box = (0 0 0) to (867.6 867.6 867.6)
  create_atoms CPU = 21.426 seconds
Reading eam potential file Cu_u3.eam with DATE: 2007-06-11
Neighbor list info ...
  update every 1 steps, delay 5 steps, check yes
  max neighbors/atom: 2000, page size: 100000
  master list distance cutoff = 5.95
  ghost atom cutoff = 5.95
  binsize = 5.95, bins = 146 146 146
  1 neighbor lists, perpetual/occasional/extra = 1 0 0
  (1) pair eam/kk, perpetual
      attributes: half, newton off, kokkos_device
      pair build: half/bin/kk/device
      stencil: full/bin/3d
      bin: kk/device
Setting up Verlet run ...
  Unit style    : metal
  Current step  : 0
  Time step     : 0.005
Per MPI rank memory allocation (min/avg/max) = 1.021e+04 | 1.021e+04 | 1.021e+04 Mbytes
Step Temp E_pair E_mol TotEng Press 
       0         1600 -1.9574784e+08            0 -1.8431173e+08    18704.158 
      50    780.75589 -1.8985443e+08            0 -1.8427392e+08    52285.542 
     100    798.38523 -1.8998119e+08            0 -1.8427468e+08    51471.286 
Loop time of 192.535 on 1 procs for 100 steps with 55296000 atoms

Performance: 0.224 ns/day, 106.964 hours/ns, 0.519 timesteps/s
141.8% CPU use with 1 MPI tasks x 1 OpenMP threads

MPI task timing breakdown:
Section |  min time  |  avg time  |  max time  |%varavg| %total
---------------------------------------------------------------
Pair    | 35.22      | 35.22      | 35.22      |   0.0 | 18.29
Neigh   | 8.3083     | 8.3083     | 8.3083     |   0.0 |  4.32
Comm    | 15.269     | 15.269     | 15.269     |   0.0 |  7.93
Output  | 0.21947    | 0.21947    | 0.21947    |   0.0 |  0.11
Modify  | 125.61     | 125.61     | 125.61     |   0.0 | 65.24
Other   |            | 7.907      |            |       |  4.11

Nlocal:     5.5296e+07 ave  5.5296e+07 max  5.5296e+07 min
Histogram: 1 0 0 0 0 0 0 0 0 0
Nghost:     2.4545e+06 ave  2.4545e+06 max  2.4545e+06 min
Histogram: 1 0 0 0 0 0 0 0 0 0
Neighs:    2.10273e+09 ave 2.10273e+09 max 2.10273e+09 min
Histogram: 1 0 0 0 0 0 0 0 0 0

Total # of neighbors = 2.1027286e+09
Ave neighs/atom = 38.026776
Neighbor list builds = 16
Dangerous builds = 2
Total wall time: 0:03:57
