LAMMPS (17 Feb 2022)
KOKKOS mode is enabled (../kokkos.cpp:105)
  will use up to 1 GPU(s) per node
Lattice spacing in x,y,z = 3.615 3.615 3.615
Created orthogonal box = (0 0 0) to (578.4 578.4 578.4)
  1 by 1 by 1 MPI processor grid
Created 16384000 atoms
  using lattice units in orthogonal box = (0 0 0) to (578.4 578.4 578.4)
  create_atoms CPU = 8.785 seconds
Reading eam potential file Cu_u3.eam with DATE: 2007-06-11
Neighbor list info ...
  update every 1 steps, delay 5 steps, check yes
  max neighbors/atom: 2000, page size: 100000
  master list distance cutoff = 5.95
  ghost atom cutoff = 5.95
  binsize = 5.95, bins = 98 98 98
  1 neighbor lists, perpetual/occasional/extra = 1 0 0
  (1) pair eam/kk, perpetual
      attributes: half, newton off, kokkos_device
      pair build: half/bin/kk/device
      stencil: full/bin/3d
      bin: kk/device
Setting up Verlet run ...
  Unit style    : metal
  Current step  : 0
  Time step     : 0.005
Per MPI rank memory allocation (min/avg/max) = 3090 | 3090 | 3090 Mbytes
Step Temp E_pair E_mol TotEng Press 
       0         1600    -57999360            0    -54610883    18704.157 
      50    780.57145    -56252768            0    -54599675    52292.906 
     100    798.49243    -56290949            0    -54599903     51466.55 
Loop time of 45.6245 on 1 procs for 100 steps with 16384000 atoms

Performance: 0.947 ns/day, 25.347 hours/ns, 2.192 timesteps/s
94.1% CPU use with 1 MPI tasks x 1 OpenMP threads

MPI task timing breakdown:
Section |  min time  |  avg time  |  max time  |%varavg| %total
---------------------------------------------------------------
Pair    | 7.6208     | 7.6208     | 7.6208     |   0.0 | 16.70
Neigh   | 2.2007     | 2.2007     | 2.2007     |   0.0 |  4.82
Comm    | 5.0521     | 5.0521     | 5.0521     |   0.0 | 11.07
Output  | 0.0767     | 0.0767     | 0.0767     |   0.0 |  0.17
Modify  | 27.828     | 27.828     | 27.828     |   0.0 | 60.99
Other   |            | 2.846      |            |       |  6.24

Nlocal:     1.6384e+07 ave  1.6384e+07 max  1.6384e+07 min
Histogram: 1 0 0 0 0 0 0 0 0 0
Nghost:    1.09882e+06 ave 1.09882e+06 max 1.09882e+06 min
Histogram: 1 0 0 0 0 0 0 0 0 0
Neighs:    6.25446e+08 ave 6.25446e+08 max 6.25446e+08 min
Histogram: 1 0 0 0 0 0 0 0 0 0

Total # of neighbors = 6.2544625e+08
Ave neighs/atom = 38.174209
Neighbor list builds = 15
Dangerous builds = 0
Total wall time: 0:01:04
